
     Program PWSCF v.7.0 starts on 18Dec2024 at  7:39: 2 

     This program is part of the open-source Quantum ESPRESSO suite
     for quantum simulation of materials; please cite
         "P. Giannozzi et al., J. Phys.:Condens. Matter 21 395502 (2009);
         "P. Giannozzi et al., J. Phys.:Condens. Matter 29 465901 (2017);
         "P. Giannozzi et al., J. Chem. Phys. 152 154105 (2020);
          URL http://www.quantum-espresso.org", 
     in publications or presentations arising from this work. More details at
     http://www.quantum-espresso.org/quote

     Parallel version (MPI & OpenMP), running on     288 processor cores
     Number of MPI processes:               288
     Threads/MPI process:                     1

     MPI processes distributed on     8 nodes
     band groups division:  nbgrp     =       4
     R & G space division:  proc/nbgrp/npool/nimage =      72
     59269 MiB available memory on the printing compute node when the environment starts
 
     Reading input from pwscf.in

     Current dimensions of program PWSCF are:
     Max number of different atomic species (ntypx) = 10
     Max number of k-points (npk) =  40000
     Max angular momentum in pseudopotentials (lmaxx) =  4
     file O.pbe-n-kjpaw_psl.0.1.UPF: wavefunction(s)  2P renormalized
     file Ce.paw.z_12.atompaw.wentzcovitch.v1.2.upf: wavefunction(s)  6S 0P 5D 0D 4F 0F renormalized
     file C.pbe-n-kjpaw_psl.1.0.0.UPF: wavefunction(s)  2S 2P renormalized
     file Fe.pbe-spn-kjpaw_psl.0.2.1.UPF: wavefunction(s)  3D renormalized

     gamma-point specific algorithms are used

     Subspace diagonalization in iterative solution of the eigenvalue problem:
     one sub-group per band group will be used
     scalapack distributed-memory algorithm (size of sub-group:  8*  8 procs)

 
     Parallelization info
     --------------------
     sticks:   dense  smooth     PW     G-vecs:    dense   smooth      PW
     Min         587     294     72               126648    44778    5584
     Max         590     296     74               126664    44796    5614
     Sum       42361   21205   5305              9119279  3224425  403087
 
     Using Slab Decomposition
 


     bravais-lattice index     =            0
     lattice parameter (alat)  =      43.8349  a.u.
     unit-cell volume          =   94338.8593 (a.u.)^3
     number of atoms/cell      =          258
     number of atomic types    =            6
     number of electrons       =      1896.00
     number of Kohn-Sham states=         2500
     kinetic-energy cutoff     =      40.0000  Ry
     charge density cutoff     =     320.0000  Ry
     scf convergence threshold =      4.2E-08
     mixing beta               =       0.1000
     number of iterations used =            8  plain     mixing
     Exchange-correlation= SLA  PW   PBX  PBC
                           (   1   4   3   4   0   0   0)

     celldm(1)=  43.834893  celldm(2)=   0.000000  celldm(3)=   0.000000
     celldm(4)=   0.000000  celldm(5)=   0.000000  celldm(6)=   0.000000

     crystal axes: (cart. coord. in units of alat)
               a(1) = (   1.000000   0.000000   0.000000 )  
               a(2) = (  -0.500000   0.866025   0.000000 )  
               a(3) = (   0.000000   0.000000   1.293303 )  

     reciprocal axes: (cart. coord. in units 2 pi/alat)
               b(1) = (  1.000000  0.577350  0.000000 )  
               b(2) = (  0.000000  1.154701  0.000000 )  
               b(3) = (  0.000000  0.000000  0.773214 )  


     PseudoPot. # 1 for O  read from file:
     ./pseudo/O.pbe-n-kjpaw_psl.0.1.UPF
     MD5 check sum: 0234752ac141de4415c5fc33072bef88
     Pseudo is Projector augmented-wave + core cor, Zval =  6.0
     Generated using "atomic" code by A. Dal Corso  v.5.0.99 svn rev. 10869
     Shape of augmentation charge: BESSEL
     Using radial grid of 1095 points,  4 beta functions with: 
                l(1) =   0
                l(2) =   0
                l(3) =   1
                l(4) =   1
     Q(r) pseudized with 0 coefficients 


     PseudoPot. # 2 for Ce read from file:
     ./pseudo/Ce.paw.z_12.atompaw.wentzcovitch.v1.2.upf
     MD5 check sum: 2241420ff980c77e0c917a2dc8a7e08e
     Pseudo is Projector augmented-wave + core cor, Zval = 12.0
     Generated using ATOMPAW code
     Shape of augmentation charge: BESSEL
     Using radial grid of 1102 points,  8 beta functions with: 
                l(1) =   0
                l(2) =   0
                l(3) =   1
                l(4) =   1
                l(5) =   2
                l(6) =   2
                l(7) =   3
                l(8) =   3
     Q(r) pseudized with 0 coefficients 


     PseudoPot. # 3 for H  read from file:
     ./pseudo/H.pbe-rrkjus_psl.1.0.0.UPF
     MD5 check sum: f52b6d4d1c606e5624b1dc7b2218f220
     Pseudo is Ultrasoft, Zval =  1.0
     Generated using "atomic" code by A. Dal Corso  v.5.1
     Using radial grid of  929 points,  2 beta functions with: 
                l(1) =   0
                l(2) =   0
     Q(r) pseudized with 0 coefficients 


     PseudoPot. # 4 for N  read from file:
     ./pseudo/N.pbe-n-radius_5.UPF
     MD5 check sum: 16739722b17309cd8fe442a2ace49922
     Pseudo is Ultrasoft + core correction, Zval =  5.0
     Generated using "atomic" code by A. Dal Corso  v.5.1
     Using radial grid of 1085 points,  4 beta functions with: 
                l(1) =   0
                l(2) =   0
                l(3) =   1
                l(4) =   1
     Q(r) pseudized with 0 coefficients 


     PseudoPot. # 5 for C  read from file:
     ./pseudo/C.pbe-n-kjpaw_psl.1.0.0.UPF
     MD5 check sum: 5d2aebdfa2cae82b50a7e79e9516da0f
     Pseudo is Projector augmented-wave + core cor, Zval =  4.0
     Generated using "atomic" code by A. Dal Corso  v.5.1
     Shape of augmentation charge: PSQ
     Using radial grid of 1073 points,  4 beta functions with: 
                l(1) =   0
                l(2) =   0
                l(3) =   1
                l(4) =   1
     Q(r) pseudized with 0 coefficients 


     PseudoPot. # 6 for Fe read from file:
     ./pseudo/Fe.pbe-spn-kjpaw_psl.0.2.1.UPF
     MD5 check sum: e86618425769142926afa95317d90200
     Pseudo is Projector augmented-wave + core cor, Zval = 16.0
     Generated using "atomic" code by A. Dal Corso  v.5.0.99 svn rev. 10869
     Shape of augmentation charge: PSQ
     Using radial grid of 1191 points,  6 beta functions with: 
                l(1) =   0
                l(2) =   0
                l(3) =   1
                l(4) =   1
                l(5) =   2
                l(6) =   2
     Q(r) pseudized with 0 coefficients 


     atomic species   valence    mass     pseudopotential
        O              6.00    15.99940     O ( 1.00)
        Ce            12.00   140.11600     Ce( 1.00)
        H              1.00     1.00794     H ( 1.00)
        N              5.00    14.00670     N ( 1.00)
        C              4.00    12.01070     C ( 1.00)
        Fe            16.00    55.84500     Fe( 1.00)

     Starting magnetic structure 
     atomic species   magnetization
        O            0.100
        Ce           0.417
        H            0.000
        N            0.000
        C            0.000
        Fe           0.417


     Simplified LDA+U calculation (l_max = 3) with parameters (eV):
     atomic species    L          U    alpha       J0     beta
        Ce             3     5.0000   0.0000   0.0000   0.0000
        Fe             2     6.0000   0.0000   0.0000   0.0000



     No symmetry found



   Cartesian axes

     site n.     atom                  positions (alat units)
         1           O   tau(   1) = (   0.0833330   0.2405628   0.2721652  )
         2           O   tau(   2) = (   0.0833331   0.8179129   0.2721652  )
         3           O   tau(   3) = (   0.0833335   0.5292376   0.2721652  )
         4           O   tau(   4) = (   0.1666664   0.6735755   0.2721652  )
         5           O   tau(   5) = (   0.1666665   0.0962249   0.2721652  )
         6           O   tau(   6) = (   0.1666667   0.3849002   0.2721652  )
         7           O   tau(   7) = (   0.2499996   0.8179129   0.2721652  )
         8           O   tau(   8) = (   0.2500000   0.5292376   0.2721652  )
         9           O   tau(   9) = (   0.2500000   0.2405628   0.2721652  )
        10           O   tau(  10) = (   0.3333329   0.6735755   0.2721652  )
        11           O   tau(  11) = (   0.3333332   0.3849002   0.2721652  )
        12           O   tau(  12) = (   0.3333335   0.0962249   0.2721652  )
        13           O   tau(  13) = (   0.4166664   0.5292376   0.2721652  )
        14           O   tau(  14) = (   0.4166665   0.2405628   0.2721652  )
        15           O   tau(  15) = (   0.4166666   0.8179129   0.2721652  )
        16           O   tau(  16) = (  -0.0000000   0.0962249   0.2721652  )
        17           O   tau(  17) = (  -0.0000001   0.6735755   0.2721652  )
        18           O   tau(  18) = (  -0.0000003   0.3849002   0.2721652  )
        19           O   tau(  19) = (  -0.0833334   0.8179129   0.2721652  )
        20           O   tau(  20) = (  -0.0833335   0.2405628   0.2721652  )
        21           O   tau(  21) = (  -0.0833336   0.5292376   0.2721652  )
        22           O   tau(  22) = (  -0.1666668   0.3849002   0.2721652  )
        23           O   tau(  23) = (  -0.1666671   0.6735755   0.2721652  )
        24           O   tau(  24) = (  -0.2500001   0.5292376   0.2721652  )
        25           O   tau(  25) = (  -0.2500004   0.8179129   0.2721652  )
        26           O   tau(  26) = (  -0.3333336   0.6735755   0.2721652  )
        27           O   tau(  27) = (  -0.4166669   0.8179129   0.2721652  )
        28           O   tau(  28) = (   0.4999997   0.3849002   0.2721652  )
        29           O   tau(  29) = (   0.4999999   0.6735755   0.2721652  )
        30           O   tau(  30) = (   0.5000000   0.0962249   0.2721652  )
        31           O   tau(  31) = (   0.5833329   0.2405628   0.2721652  )
        32           O   tau(  32) = (   0.5833335   0.5292376   0.2721652  )
        33           O   tau(  33) = (   0.6666665   0.0962249   0.2721652  )
        34           O   tau(  34) = (   0.6666667   0.3849002   0.2721652  )
        35           O   tau(  35) = (   0.7500000   0.2405628   0.2721652  )
        36           O   tau(  36) = (   0.8333335   0.0962249   0.2721652  )
        37           Ce  tau(  37) = (   0.0000000   0.0000000   0.3061864  )
        38           Ce  tau(  38) = (   0.0000002   0.5773501   0.3061864  )
        39           Ce  tau(  39) = (   0.0833332   0.7216879   0.3061864  )
        40           Ce  tau(  40) = (   0.0833332   0.1443374   0.3061864  )
        41           Ce  tau(  41) = (   0.0833334   0.4330127   0.3061864  )
        42           Ce  tau(  42) = (   0.1666665   0.0000000   0.3061864  )
        43           Ce  tau(  43) = (   0.1666667   0.5773501   0.3061864  )
        44           Ce  tau(  44) = (   0.1666667   0.2886753   0.3061864  )
        45           Ce  tau(  45) = (   0.2499997   0.7216879   0.3061864  )
        46           Ce  tau(  46) = (   0.2499999   0.4330127   0.3061864  )
        47           Ce  tau(  47) = (   0.2500002   0.1443374   0.3061864  )
        48           Ce  tau(  48) = (   0.3333332   0.5773501   0.3061864  )
        49           Ce  tau(  49) = (   0.3333332   0.2886753   0.3061864  )
        50           Ce  tau(  50) = (   0.3333335   0.0000000   0.3061864  )
        51           Ce  tau(  51) = (   0.4166665   0.4330127   0.3061864  )
        52           Ce  tau(  52) = (   0.4166667   0.7216879   0.3061864  )
        53           Ce  tau(  53) = (   0.4166667   0.1443374   0.3061864  )
        54           Ce  tau(  54) = (  -0.0000003   0.2886753   0.3061864  )
        55           Ce  tau(  55) = (  -0.0833333   0.1443374   0.3061864  )
        56           Ce  tau(  56) = (  -0.0833333   0.7216879   0.3061864  )
        57           Ce  tau(  57) = (  -0.0833336   0.4330127   0.3061864  )
        58           Ce  tau(  58) = (  -0.1666668   0.2886753   0.3061864  )
        59           Ce  tau(  59) = (  -0.1666668   0.5773501   0.3061864  )
        60           Ce  tau(  60) = (  -0.2500001   0.4330127   0.3061864  )
        61           Ce  tau(  61) = (  -0.2500003   0.7216879   0.3061864  )
        62           Ce  tau(  62) = (  -0.3333333   0.5773501   0.3061864  )
        63           Ce  tau(  63) = (   0.4999997   0.2886753   0.3061864  )
        64           Ce  tau(  64) = (   0.5000000   0.0000000   0.3061864  )
        65           Ce  tau(  65) = (   0.5000002   0.5773501   0.3061864  )
        66           Ce  tau(  66) = (   0.5833332   0.7216879   0.3061864  )
        67           Ce  tau(  67) = (   0.5833332   0.1443374   0.3061864  )
        68           Ce  tau(  68) = (   0.5833334   0.4330127   0.3061864  )
        69           Ce  tau(  69) = (   0.6666665   0.0000000   0.3061864  )
        70           Ce  tau(  70) = (   0.6666667   0.2886753   0.3061864  )
        71           Ce  tau(  71) = (   0.7500002   0.1443374   0.3061864  )
        72           Ce  tau(  72) = (   0.8333335   0.0000000   0.3061864  )
        73           O   tau(  73) = (   0.0000002   0.4811252   0.3402076  )
        74           O   tau(  74) = (   0.0833332   0.0481125   0.3402076  )
        75           O   tau(  75) = (   0.0833334   0.6254625   0.3402076  )
        76           O   tau(  76) = (   0.0833334   0.3367877   0.3402076  )
        77           O   tau(  77) = (   0.1666664   0.7698004   0.3402076  )
        78           O   tau(  78) = (   0.1666667   0.4811252   0.3402076  )
        79           O   tau(  79) = (   0.1666670   0.1924499   0.3402076  )
        80           O   tau(  80) = (   0.2499999   0.6254625   0.3402076  )
        81           O   tau(  81) = (   0.2500000   0.3367877   0.3402076  )
        82           O   tau(  82) = (   0.2500002   0.0481125   0.3402076  )
        83           O   tau(  83) = (   0.3333332   0.4811252   0.3402076  )
        84           O   tau(  84) = (   0.3333334   0.7698004   0.3402076  )
        85           O   tau(  85) = (   0.3333335   0.1924499   0.3402076  )
        86           O   tau(  86) = (   0.4166664   0.3367877   0.3402076  )
        87           O   tau(  87) = (   0.4166668   0.0481125   0.3402076  )
        88           O   tau(  88) = (   0.4166670   0.6254625   0.3402076  )
        89           O   tau(  89) = (  -0.0000000   0.1924499   0.3402076  )
        90           O   tau(  90) = (  -0.0000001   0.7698004   0.3402076  )
        91           O   tau(  91) = (  -0.0833331   0.6254625   0.3402076  )
        92           O   tau(  92) = (  -0.0833336   0.3367877   0.3402076  )
        93           O   tau(  93) = (  -0.1666666   0.7698004   0.3402076  )
        94           O   tau(  94) = (  -0.1666668   0.4811252   0.3402076  )
        95           O   tau(  95) = (  -0.2500001   0.6254625   0.3402076  )
        96           O   tau(  96) = (  -0.3333336   0.7698004   0.3402076  )
        97           O   tau(  97) = (   0.4999999   0.7698004   0.3402076  )
        98           O   tau(  98) = (   0.5000000   0.1924499   0.3402076  )
        99           O   tau(  99) = (   0.5000002   0.4811252   0.3402076  )
       100           O   tau( 100) = (   0.5833332   0.0481125   0.3402076  )
       101           O   tau( 101) = (   0.5833335   0.6254625   0.3402076  )
       102           O   tau( 102) = (   0.5833335   0.3367877   0.3402076  )
       103           O   tau( 103) = (   0.6666667   0.4811252   0.3402076  )
       104           O   tau( 104) = (   0.6666670   0.1924499   0.3402076  )
       105           O   tau( 105) = (   0.7500000   0.3367877   0.3402076  )
       106           O   tau( 106) = (   0.7500003   0.0481125   0.3402076  )
       107           O   tau( 107) = (   0.8333335   0.1924499   0.3402076  )
       108           O   tau( 108) = (   0.9166668   0.0481125   0.3402076  )
       109           O   tau( 109) = (   0.0823433   0.7222185   0.4059078  )
       110           O   tau( 110) = (   0.3338493   0.2894930   0.4067531  )
       111           O   tau( 111) = (  -0.1666537   0.2886815   0.4064254  )
       112           O   tau( 112) = (  -0.4166379   0.7216518   0.4064663  )
       113           O   tau( 113) = (   0.1665424   0.5774297   0.4062463  )
       114           O   tau( 114) = (   0.4166670   0.1448989   0.4063999  )
       115           O   tau( 115) = (  -0.0833269   0.1444231   0.4064371  )
       116           O   tau( 116) = (  -0.3331069   0.5774215   0.4063883  )
       117           O   tau( 117) = (  -0.0001358   0.2885945   0.4063344  )
       118           O   tau( 118) = (   0.2506431   0.7219705   0.4063347  )
       119           O   tau( 119) = (  -0.2499716   0.7216432   0.4064869  )
       120           O   tau( 120) = (   0.4995802   0.2884951   0.4064568  )
       121           O   tau( 121) = (   0.0834685   0.4327259   0.4062264  )
       122           O   tau( 122) = (   0.3333409   0.0000995   0.4064450  )
       123           O   tau( 123) = (   0.5842008   0.4333897   0.4059867  )
       124           O   tau( 124) = (   0.8333910   0.0002365   0.4063401  )
       125           O   tau( 125) = (   0.0000758   0.0001426   0.4063162  )
       126           O   tau( 126) = (   0.2514232   0.4308732   0.4069409  )
       127           O   tau( 127) = (  -0.2497483   0.4329812   0.4063972  )
       128           O   tau( 128) = (   0.4999144   0.0002152   0.4064427  )
       129           O   tau( 129) = (   0.1666891  -0.0000985   0.4063875  )
       130           O   tau( 130) = (   0.4165521   0.4331953   0.4070175  )
       131           O   tau( 131) = (  -0.0832931   0.4330767   0.4064326  )
       132           O   tau( 132) = (   0.6665103   0.0002527   0.4063002  )
       133           O   tau( 133) = (   0.1666765   0.2884365   0.4064387  )
       134           O   tau( 134) = (   0.4170730   0.7218539   0.4063902  )
       135           O   tau( 135) = (  -0.0831424   0.7215809   0.4065775  )
       136           O   tau( 136) = (   0.6668293   0.2885723   0.4063648  )
       137           O   tau( 137) = (   0.2500271   0.1438676   0.4060917  )
       138           O   tau( 138) = (  -0.0002530   0.5774854   0.4061298  )
       139           O   tau( 139) = (   0.4998397   0.5772395   0.4064328  )
       140           O   tau( 140) = (   0.7500374   0.1444020   0.4063917  )
       141           O   tau( 141) = (   0.0831863   0.1442408   0.4062810  )
       142           O   tau( 142) = (   0.3352532   0.5772675   0.4074770  )
       143           O   tau( 143) = (  -0.1664857   0.5772621   0.4064575  )
       144           O   tau( 144) = (   0.5833126   0.1444823   0.4063999  )
       145           Ce  tau( 145) = (   0.0832122   0.6256758   0.4403458  )
       146           Ce  tau( 146) = (   0.3331094   0.1916612   0.4407491  )
       147           Ce  tau( 147) = (   0.5837348   0.6257962   0.4414855  )
       148           Ce  tau( 148) = (   0.8334212   0.1923957   0.4414936  )
       149           Ce  tau( 149) = (  -0.0000288   0.7699268   0.4414493  )
       150           Ce  tau( 150) = (   0.2490958   0.3354541   0.4415848  )
       151           Ce  tau( 151) = (   0.5000676   0.7702222   0.4414973  )
       152           Ce  tau( 152) = (   0.7503960   0.3367395   0.4415857  )
       153           Ce  tau( 153) = (   0.1666467   0.7702380   0.4409409  )
       154           Ce  tau( 154) = (   0.4176248   0.3364556   0.4405069  )
       155           Ce  tau( 155) = (  -0.0833327   0.3366374   0.4415214  )
       156           Ce  tau( 156) = (  -0.3333078   0.7698930   0.4414596  )
       157           Ce  tau( 157) = (   0.1662889   0.4809324   0.4404673  )
       158           Ce  tau( 158) = (   0.4166662   0.0479971   0.4414188  )
       159           Ce  tau( 159) = (   0.6674418   0.4812162   0.4414136  )
       160           Ce  tau( 160) = (   0.9166743   0.0482396   0.4414617  )
       161           Ce  tau( 161) = (   0.0829843   0.3364437   0.4412354  )
       162           Ce  tau( 162) = (   0.3334058   0.7702458   0.4414086  )
       163           Ce  tau( 163) = (  -0.1666378   0.7697494   0.4415092  )
       164           Ce  tau( 164) = (   0.5844031   0.3366979   0.4410380  )
       165           Ce  tau( 165) = (   0.2498473   0.0478566   0.4414513  )
       166           Ce  tau( 166) = (   0.0000411   0.4810021   0.4412144  )
       167           Ce  tau( 167) = (   0.5022498   0.4816525   0.4402549  )
       168           Ce  tau( 168) = (   0.7501524   0.0482430   0.4415104  )
       169           Ce  tau( 169) = (  -0.0001793   0.1923130   0.4414736  )
       170           Ce  tau( 170) = (   0.2498981   0.6261973   0.4420640  )
       171           Ce  tau( 171) = (  -0.2497124   0.6255837   0.4414266  )
       172           Ce  tau( 172) = (   0.5004197   0.1921505   0.4414197  )
       173           Ce  tau( 173) = (   0.0832088   0.0480640   0.4414640  )
       174           Ce  tau( 174) = (   0.3331066   0.4814805   0.4409684  )
       175           Ce  tau( 175) = (  -0.1663669   0.4811440   0.4415108  )
       176           Ce  tau( 176) = (   0.5833255   0.0480750   0.4415307  )
       177           Ce  tau( 177) = (   0.1662654   0.1918225   0.4413138  )
       178           Ce  tau( 178) = (   0.4174235   0.6267708   0.4418297  )
       179           Ce  tau( 179) = (  -0.0832755   0.6255257   0.4414598  )
       180           Ce  tau( 180) = (   0.6669227   0.1922427   0.4416074  )
       181           O   tau( 181) = (   0.1672761   0.3844021   0.4751544  )
       182           O   tau( 182) = (   0.4167608   0.8181027   0.4754355  )
       183           O   tau( 183) = (  -0.0834086   0.8179613   0.4755718  )
       184           O   tau( 184) = (   0.6670516   0.3846983   0.4757223  )
       185           O   tau( 185) = (   0.0830901   0.5290976   0.4747644  )
       186           O   tau( 186) = (   0.3336017   0.0965859   0.4753776  )
       187           O   tau( 187) = (   0.5836351   0.5291979   0.4757177  )
       188           O   tau( 188) = (   0.8332900   0.0964582   0.4755937  )
       189           O   tau( 189) = (   0.2499952   0.8183962   0.4752276  )
       190           O   tau( 190) = (   0.0000459   0.3846525   0.4754243  )
       191           O   tau( 191) = (  -0.2499701   0.8178987   0.4755378  )
       192           O   tau( 192) = (   0.5024918   0.3854394   0.4749801  )
       193           O   tau( 193) = (   0.1663088   0.6751558   0.4721429  )
       194           O   tau( 194) = (   0.4167989   0.2408841   0.4778910  )
       195           O   tau( 195) = (  -0.0834047   0.2406648   0.4755630  )
       196           O   tau( 196) = (  -0.3334193   0.6734696   0.4755828  )
       197           O   tau( 197) = (   0.0831871   0.8181881   0.4756725  )
       198           O   tau( 198) = (   0.3361344   0.3827036   0.4823007  )
       199           O   tau( 199) = (  -0.1665223   0.3848248   0.4755162  )
       200           O   tau( 200) = (  -0.4167277   0.8179361   0.4754940  )
       201           O   tau( 201) = (   0.2503099   0.2397244   0.4740752  )
       202           O   tau( 202) = (   0.0001741   0.6732973   0.4766960  )
       203           O   tau( 203) = (   0.4998961   0.6735389   0.4758359  )
       204           O   tau( 204) = (   0.7500637   0.2406190   0.4755450  )
       205           O   tau( 205) = (   0.2491985   0.5284355   0.4720531  )
       206           O   tau( 206) = (  -0.0000486   0.0962803   0.4755445  )
       207           O   tau( 207) = (  -0.2497528   0.5291475   0.4756503  )
       208           O   tau( 208) = (   0.4999037   0.0966569   0.4755518  )
       209           O   tau( 209) = (   0.0831983   0.2404988   0.4754360  )
       210           O   tau( 210) = (   0.3340300   0.6739217   0.4752494  )
       211           O   tau( 211) = (  -0.1666397   0.6735155   0.4756948  )
       212           O   tau( 212) = (   0.5832187   0.2408261   0.4761265  )
       213           O   tau( 213) = (   0.1665386   0.0961355   0.4752114  )
       214           O   tau( 214) = (   0.4214858   0.5291734   0.4816431  )
       215           O   tau( 215) = (  -0.0829847   0.5292419   0.4761505  )
       216           O   tau( 216) = (   0.6665972   0.0965559   0.4755030  )
       217           H   tau( 217) = (   0.0495517   0.5646468   0.6030388  )
       218           N   tau( 218) = (   0.0930555   0.5706717   0.6008701  )
       219           C   tau( 219) = (   0.1219593   0.6215138   0.5897628  )
       220           N   tau( 220) = (   0.1783540   0.6145030   0.5855349  )
       221           C   tau( 221) = (   0.1865488   0.5565177   0.5935455  )
       222           C   tau( 222) = (   0.2377627   0.5226281   0.5919729  )
       223           O   tau( 223) = (   0.2888891   0.5393917   0.5864352  )
       224           N   tau( 224) = (   0.2250389   0.4636628   0.5953594  )
       225           C   tau( 225) = (   0.1716945   0.4397167   0.6065492  )
       226           N   tau( 226) = (   0.1694160   0.3824706   0.6139313  )
       227           N   tau( 227) = (   0.1236172   0.4712440   0.6094703  )
       228           C   tau( 228) = (   0.1335195   0.5277355   0.6024092  )
       229           H   tau( 229) = (   0.0992852   0.6624241   0.5849240  )
       230           H   tau( 230) = (   0.2601800   0.4368256   0.5912226  )
       231           H   tau( 231) = (   0.1311083   0.3645090   0.6252875  )
       232           H   tau( 232) = (   0.2047303   0.3564094   0.6095641  )
       233           H   tau( 233) = (   0.3719362   0.2588225   0.5853731  )
       234           N   tau( 234) = (   0.3752907   0.3028815   0.5860234  )
       235           C   tau( 235) = (   0.3256898   0.3343634   0.5821303  )
       236           O   tau( 236) = (   0.2770506   0.3150938   0.5783775  )
       237           N   tau( 237) = (   0.3340941   0.3960855   0.5980212  )
       238           C   tau( 238) = (   0.3878111   0.4230085   0.5797679  )
       239           N   tau( 239) = (   0.3856035   0.4787380   0.5749674  )
       240           C   tau( 240) = (   0.4362195   0.3861173   0.5772560  )
       241           C   tau( 241) = (   0.4288046   0.3280281   0.5842522  )
       242           H   tau( 242) = (   0.4650473   0.2981647   0.5867248  )
       243           H   tau( 243) = (   0.4795576   0.4033120   0.5708453  )
       244           H   tau( 244) = (   0.3452787   0.5012097   0.5821898  )
       245           H   tau( 245) = (   0.4156743   0.5022498   0.5493046  )
       246           N   tau( 246) = (   0.3333037   0.3958557   0.6567113  )
       247           C   tau( 247) = (   0.3282024   0.3737339   0.7024192  )
       248           N   tau( 248) = (   0.2525744   0.2383290   0.7031737  )
       249           C   tau( 249) = (   0.2769903   0.2711073   0.7331881  )
       250           N   tau( 250) = (   0.4331238   0.2636213   0.7356602  )
       251           C   tau( 251) = (   0.3929658   0.2876045   0.7551864  )
       252           Fe  tau( 252) = (   0.3203774   0.3340048   0.7790720  )
       253           C   tau( 253) = (   0.2454488   0.3808234   0.7800047  )
       254           N   tau( 254) = (   0.2072287   0.4121300   0.7690933  )
       255           C   tau( 255) = (   0.3731751   0.4003866   0.8028898  )
       256           N   tau( 256) = (   0.4005254   0.4428062   0.8082102  )
       257           C   tau( 257) = (   0.3133874   0.3036844   0.8582268  )
       258           N   tau( 258) = (   0.3089655   0.2860366   0.9054000  )

     number of k points=     1  Methfessel-Paxton smearing, width (Ry)=  0.0200
                       cart. coord. in units 2pi/alat
        k(    1) = (   0.0000000   0.0000000   0.0000000), wk =   1.0000000

     Dense  grid:  4559640 G-vectors     FFT dimensions: ( 250, 250, 324)

     Smooth grid:  1612213 G-vectors     FFT dimensions: ( 180, 180, 240)

     Estimated max dynamical RAM per process >       1.58 GB

     Estimated total dynamical RAM >     454.60 GB

     Check: negative core charge=   -0.000004
     Generating pointlists ...
     new r_m :   0.0216 (alat units)  0.9484 (a.u.) for type    1
     new r_m :   0.0411 (alat units)  1.8033 (a.u.) for type    2
     new r_m :   0.0181 (alat units)  0.7921 (a.u.) for type    3
     new r_m :   0.0181 (alat units)  0.7921 (a.u.) for type    4
     new r_m :   0.0194 (alat units)  0.8503 (a.u.) for type    5
     new r_m :   0.0351 (alat units)  1.5379 (a.u.) for type    6

     Initial potential from superposition of free atoms

     starting charge    1895.4954, renormalised to    1896.0000

     negative rho (up, down):  1.921E-02 1.246E-02
     Number of +U iterations with fixed ns =  0
     Starting occupations:

     Hubbard parameters (eV):
     U(  2) =  5.0000
     U(  6) =  6.0000

     ================= HUBBARD OCCUPATIONS ================
     --------------------- ATOM   37 ----------------------
     Tr[ns] (up, down, total) =   2.00000  0.00000  2.00000
     Atomic magnetic moment =   2.00000
     SPIN  1
     eigenvalues:
       0.286  0.286  0.286  0.286  0.286  0.286  0.286
     eigenvectors (columns):
       1.000  0.000  0.000  0.000  0.000  0.000  0.000
       0.000  1.000  0.000  0.000  0.000  0.000  0.000
       0.000  0.000  1.000  0.000  0.000  0.000  0.000
       0.000  0.000  0.000  1.000  0.000  0.000  0.000
       0.000  0.000  0.000  0.000  1.000  0.000  0.000
       0.000  0.000  0.000  0.000  0.000  1.000  0.000
       0.000  0.000  0.000  0.000  0.000  0.000  1.000
     occupation matrix ns (before diag.):
       0.286  0.000  0.000  0.000  0.000  0.000  0.000
       0.000  0.286  0.000  0.000  0.000  0.000  0.000
       0.000  0.000  0.286  0.000  0.000  0.000  0.000
       0.000  0.000  0.000  0.286  0.000  0.000  0.000
       0.000  0.000  0.000  0.000  0.286  0.000  0.000
       0.000  0.000  0.000  0.000  0.000  0.286  0.000
       0.000  0.000  0.000  0.000  0.000  0.000  0.286
     SPIN  2
     eigenvalues:
       0.000  0.000  0.000  0.000  0.000  0.000  0.000
     eigenvectors (columns):
       1.000  0.000  0.000  0.000  0.000  0.000  0.000
       0.000  1.000  0.000  0.000  0.000  0.000  0.000
       0.000  0.000  1.000  0.000  0.000  0.000  0.000
       0.000  0.000  0.000  1.000  0.000  0.000  0.000
       0.000  0.000  0.000  0.000  1.000  0.000  0.000
       0.000  0.000  0.000  0.000  0.000  1.000  0.000
       0.000  0.000  0.000  0.000  0.000  0.000  1.000
     occupation matrix ns (before diag.):
       0.000  0.000  0.000  0.000  0.000  0.000  0.000
       0.000  0.000  0.000  0.000  0.000  0.000  0.000
       0.000  0.000  0.000  0.000  0.000  0.000  0.000
       0.000  0.000  0.000  0.000  0.000  0.000  0.000
       0.000  0.000  0.000  0.000  0.000  0.000  0.000
       0.000  0.000  0.000  0.000  0.000  0.000  0.000
       0.000  0.000  0.000  0.000  0.000  0.000  0.000
     --------------------- ATOM   38 ----------------------
     Tr[ns] (up, down, total) =   2.00000  0.00000  2.00000
     Atomic magnetic moment =   2.00000
     SPIN  1
     eigenvalues:
       0.286  0.286  0.286  0.286  0.286  0.286  0.286
     eigenvectors (columns):
       1.000  0.000  0.000  0.000  0.000  0.000  0.000
       0.000  1.000  0.000  0.000  0.000  0.000  0.000
       0.000  0.000  1.000  0.000  0.000  0.000  0.000
       0.000  0.000  0.000  1.000  0.000  0.000  0.000
       0.000  0.000  0.000  0.000  1.000  0.000  0.000
       0.000  0.000  0.000  0.000  0.000  1.000  0.000
       0.000  0.000  0.000  0.000  0.000  0.000  1.000
     occupation matrix ns (before diag.):
       0.286  0.000  0.000  0.000  0.000  0.000  0.000
       0.000  0.286  0.000  0.000  0.000  0.000  0.000
       0.000  0.000  0.286  0.000  0.000  0.000  0.000
       0.000  0.000  0.000  0.286  0.000  0.000  0.000
       0.000  0.000  0.000  0.000  0.286  0.000  0.000
       0.000  0.000  0.000  0.000  0.000  0.286  0.000
       0.000  0.000  0.000  0.000  0.000  0.000  0.286
     SPIN  2
     eigenvalues:
       0.000  0.000  0.000  0.000  0.000  0.000  0.000
     eigenvectors (columns):
       1.000  0.000  0.000  0.000  0.000  0.000  0.000
       0.000  1.000  0.000  0.000  0.000  0.000  0.000
       0.000  0.000  1.000  0.000  0.000  0.000  0.000
       0.000  0.000  0.000  1.000  0.000  0.000  0.000
       0.000  0.000  0.000  0.000  1.000  0.000  0.000
       0.000  0.000  0.000  0.000  0.000  1.000  0.000
       0.000  0.000  0.000  0.000  0.000  0.000  1.000
     occupation matrix ns (before diag.):
       0.000  0.000  0.000  0.000  0.000  0.000  0.000
       0.000  0.000  0.000  0.000  0.000  0.000  0.000
       0.000  0.000  0.000  0.000  0.000  0.000  0.000
       0.000  0.000  0.000  0.000  0.000  0.000  0.000
       0.000  0.000  0.000  0.000  0.000  0.000  0.000
       0.000  0.000  0.000  0.000  0.000  0.000  0.000
       0.000  0.000  0.000  0.000  0.000  0.000  0.000
     --------------------- ATOM   39 ----------------------
     Tr[ns] (up, down, total) =   2.00000  0.00000  2.00000
     Atomic magnetic moment =   2.00000
     SPIN  1
     eigenvalues:
       0.286  0.286  0.286  0.286  0.286  0.286  0.286
     eigenvectors (columns):
       1.000  0.000  0.000  0.000  0.000  0.000  0.000
       0.000  1.000  0.000  0.000  0.000  0.000  0.000
       0.000  0.000  1.000  0.000  0.000  0.000  0.000
       0.000  0.000  0.000  1.000  0.000  0.000  0.000
       0.000  0.000  0.000  0.000  1.000  0.000  0.000
       0.000  0.000  0.000  0.000  0.000  1.000  0.000
       0.000  0.000  0.000  0.000  0.000  0.000  1.000
     occupation matrix ns (before diag.):
       0.286  0.000  0.000  0.000  0.000  0.000  0.000
       0.000  0.286  0.000  0.000  0.000  0.000  0.000
       0.000  0.000  0.286  0.000  0.000  0.000  0.000
       0.000  0.000  0.000  0.286  0.000  0.000  0.000
       0.000  0.000  0.000  0.000  0.286  0.000  0.000
       0.000  0.000  0.000  0.000  0.000  0.286  0.000
       0.000  0.000  0.000  0.000  0.000  0.000  0.286
     SPIN  2
     eigenvalues:
       0.000  0.000  0.000  0.000  0.000  0.000  0.000
     eigenvectors (columns):
       1.000  0.000  0.000  0.000  0.000  0.000  0.000
       0.000  1.000  0.000  0.000  0.000  0.000  0.000
       0.000  0.000  1.000  0.000  0.000  0.000  0.000
       0.000  0.000  0.000  1.000  0.000  0.000  0.000
       0.000  0.000  0.000  0.000  1.000  0.000  0.000
       0.000  0.000  0.000  0.000  0.000  1.000  0.000
       0.000  0.000  0.000  0.000  0.000  0.000  1.000
     occupation matrix ns (before diag.):
       0.000  0.000  0.000  0.000  0.000  0.000  0.000
       0.000  0.000  0.000  0.000  0.000  0.000  0.000
       0.000  0.000  0.000  0.000  0.000  0.000  0.000
       0.000  0.000  0.000  0.000  0.000  0.000  0.000
       0.000  0.000  0.000  0.000  0.000  0.000  0.000
       0.000  0.000  0.000  0.000  0.000  0.000  0.000
       0.000  0.000  0.000  0.000  0.000  0.000  0.000
     --------------------- ATOM   40 ----------------------
     Tr[ns] (up, down, total) =   2.00000  0.00000  2.00000
     Atomic magnetic moment =   2.00000
     SPIN  1
     eigenvalues:
       0.286  0.286  0.286  0.286  0.286  0.286  0.286
     eigenvectors (columns):
       1.000  0.000  0.000  0.000  0.000  0.000  0.000
       0.000  1.000  0.000  0.000  0.000  0.000  0.000
       0.000  0.000  1.000  0.000  0.000  0.000  0.000
       0.000  0.000  0.000  1.000  0.000  0.000  0.000
       0.000  0.000  0.000  0.000  1.000  0.000  0.000
       0.000  0.000  0.000  0.000  0.000  1.000  0.000
       0.000  0.000  0.000  0.000  0.000  0.000  1.000
     occupation matrix ns (before diag.):
       0.286  0.000  0.000  0.000  0.000  0.000  0.000
       0.000  0.286  0.000  0.000  0.000  0.000  0.000
       0.000  0.000  0.286  0.000  0.000  0.000  0.000
       0.000  0.000  0.000  0.286  0.000  0.000  0.000
       0.000  0.000  0.000  0.000  0.286  0.000  0.000
       0.000  0.000  0.000  0.000  0.000  0.286  0.000
       0.000  0.000  0.000  0.000  0.000  0.000  0.286
     SPIN  2
     eigenvalues:
       0.000  0.000  0.000  0.000  0.000  0.000  0.000
     eigenvectors (columns):
       1.000  0.000  0.000  0.000  0.000  0.000  0.000
       0.000  1.000  0.000  0.000  0.000  0.000  0.000
       0.000  0.000  1.000  0.000  0.000  0.000  0.000
       0.000  0.000  0.000  1.000  0.000  0.000  0.000
       0.000  0.000  0.000  0.000  1.000  0.000  0.000
       0.000  0.000  0.000  0.000  0.000  1.000  0.000
       0.000  0.000  0.000  0.000  0.000  0.000  1.000
     occupation matrix ns (before diag.):
       0.000  0.000  0.000  0.000  0.000  0.000  0.000
       0.000  0.000  0.000  0.000  0.000  0.000  0.000
       0.000  0.000  0.000  0.000  0.000  0.000  0.000
       0.000  0.000  0.000  0.000  0.000  0.000  0.000
       0.000  0.000  0.000  0.000  0.000  0.000  0.000
       0.000  0.000  0.000  0.000  0.000  0.000  0.000
       0.000  0.000  0.000  0.000  0.000  0.000  0.000
     --------------------- ATOM   41 ----------------------
     Tr[ns] (up, down, total) =   2.00000  0.00000  2.00000
     Atomic magnetic moment =   2.00000
     SPIN  1
     eigenvalues:
       0.286  0.286  0.286  0.286  0.286  0.286  0.286
     eigenvectors (columns):
       1.000  0.000  0.000  0.000  0.000  0.000  0.000
       0.000  1.000  0.000  0.000  0.000  0.000  0.000
       0.000  0.000  1.000  0.000  0.000  0.000  0.000
       0.000  0.000  0.000  1.000  0.000  0.000  0.000
       0.000  0.000  0.000  0.000  1.000  0.000  0.000
       0.000  0.000  0.000  0.000  0.000  1.000  0.000
       0.000  0.000  0.000  0.000  0.000  0.000  1.000
     occupation matrix ns (before diag.):
       0.286  0.000  0.000  0.000  0.000  0.000  0.000
       0.000  0.286  0.000  0.000  0.000  0.000  0.000
       0.000  0.000  0.286  0.000  0.000  0.000  0.000
       0.000  0.000  0.000  0.286  0.000  0.000  0.000
       0.000  0.000  0.000  0.000  0.286  0.000  0.000
       0.000  0.000  0.000  0.000  0.000  0.286  0.000
       0.000  0.000  0.000  0.000  0.000  0.000  0.286
     SPIN  2
     eigenvalues:
       0.000  0.000  0.000  0.000  0.000  0.000  0.000
     eigenvectors (columns):
       1.000  0.000  0.000  0.000  0.000  0.000  0.000
       0.000  1.000  0.000  0.000  0.000  0.000  0.000
       0.000  0.000  1.000  0.000  0.000  0.000  0.000
       0.000  0.000  0.000  1.000  0.000  0.000  0.000
       0.000  0.000  0.000  0.000  1.000  0.000  0.000
       0.000  0.000  0.000  0.000  0.000  1.000  0.000
       0.000  0.000  0.000  0.000  0.000  0.000  1.000
     occupation matrix ns (before diag.):
       0.000  0.000  0.000  0.000  0.000  0.000  0.000
       0.000  0.000  0.000  0.000  0.000  0.000  0.000
       0.000  0.000  0.000  0.000  0.000  0.000  0.000
       0.000  0.000  0.000  0.000  0.000  0.000  0.000
       0.000  0.000  0.000  0.000  0.000  0.000  0.000
       0.000  0.000  0.000  0.000  0.000  0.000  0.000
       0.000  0.000  0.000  0.000  0.000  0.000  0.000
     --------------------- ATOM   42 ----------------------
     Tr[ns] (up, down, total) =   2.00000  0.00000  2.00000
     Atomic magnetic moment =   2.00000
     SPIN  1
     eigenvalues:
       0.286  0.286  0.286  0.286  0.286  0.286  0.286
     eigenvectors (columns):
       1.000  0.000  0.000  0.000  0.000  0.000  0.000
       0.000  1.000  0.000  0.000  0.000  0.000  0.000
       0.000  0.000  1.000  0.000  0.000  0.000  0.000
       0.000  0.000  0.000  1.000  0.000  0.000  0.000
       0.000  0.000  0.000  0.000  1.000  0.000  0.000
       0.000  0.000  0.000  0.000  0.000  1.000  0.000
       0.000  0.000  0.000  0.000  0.000  0.000  1.000
     occupation matrix ns (before diag.):
       0.286  0.000  0.000  0.000  0.000  0.000  0.000
       0.000  0.286  0.000  0.000  0.000  0.000  0.000
       0.000  0.000  0.286  0.000  0.000  0.000  0.000
       0.000  0.000  0.000  0.286  0.000  0.000  0.000
       0.000  0.000  0.000  0.000  0.286  0.000  0.000
       0.000  0.000  0.000  0.000  0.000  0.286  0.000
       0.000  0.000  0.000  0.000  0.000  0.000  0.286
     SPIN  2
     eigenvalues:
       0.000  0.000  0.000  0.000  0.000  0.000  0.000
     eigenvectors (columns):
       1.000  0.000  0.000  0.000  0.000  0.000  0.000
       0.000  1.000  0.000  0.000  0.000  0.000  0.000
       0.000  0.000  1.000  0.000  0.000  0.000  0.000
       0.000  0.000  0.000  1.000  0.000  0.000  0.000
       0.000  0.000  0.000  0.000  1.000  0.000  0.000
       0.000  0.000  0.000  0.000  0.000  1.000  0.000
       0.000  0.000  0.000  0.000  0.000  0.000  1.000
     occupation matrix ns (before diag.):
       0.000  0.000  0.000  0.000  0.000  0.000  0.000
       0.000  0.000  0.000  0.000  0.000  0.000  0.000
       0.000  0.000  0.000  0.000  0.000  0.000  0.000
       0.000  0.000  0.000  0.000  0.000  0.000  0.000
       0.000  0.000  0.000  0.000  0.000  0.000  0.000
       0.000  0.000  0.000  0.000  0.000  0.000  0.000
       0.000  0.000  0.000  0.000  0.000  0.000  0.000
     --------------------- ATOM   43 ----------------------
     Tr[ns] (up, down, total) =   2.00000  0.00000  2.00000
     Atomic magnetic moment =   2.00000
     SPIN  1
     eigenvalues:
       0.286  0.286  0.286  0.286  0.286  0.286  0.286
     eigenvectors (columns):
       1.000  0.000  0.000  0.000  0.000  0.000  0.000
       0.000  1.000  0.000  0.000  0.000  0.000  0.000
       0.000  0.000  1.000  0.000  0.000  0.000  0.000
       0.000  0.000  0.000  1.000  0.000  0.000  0.000
       0.000  0.000  0.000  0.000  1.000  0.000  0.000
       0.000  0.000  0.000  0.000  0.000  1.000  0.000
       0.000  0.000  0.000  0.000  0.000  0.000  1.000
     occupation matrix ns (before diag.):
       0.286  0.000  0.000  0.000  0.000  0.000  0.000
       0.000  0.286  0.000  0.000  0.000  0.000  0.000
       0.000  0.000  0.286  0.000  0.000  0.000  0.000
       0.000  0.000  0.000  0.286  0.000  0.000  0.000
       0.000  0.000  0.000  0.000  0.286  0.000  0.000
       0.000  0.000  0.000  0.000  0.000  0.286  0.000
       0.000  0.000  0.000  0.000  0.000  0.000  0.286
     SPIN  2
     eigenvalues:
       0.000  0.000  0.000  0.000  0.000  0.000  0.000
     eigenvectors (columns):
       1.000  0.000  0.000  0.000  0.000  0.000  0.000
       0.000  1.000  0.000  0.000  0.000  0.000  0.000
       0.000  0.000  1.000  0.000  0.000  0.000  0.000
       0.000  0.000  0.000  1.000  0.000  0.000  0.000
       0.000  0.000  0.000  0.000  1.000  0.000  0.000
       0.000  0.000  0.000  0.000  0.000  1.000  0.000
       0.000  0.000  0.000  0.000  0.000  0.000  1.000
     occupation matrix ns (before diag.):
       0.000  0.000  0.000  0.000  0.000  0.000  0.000
       0.000  0.000  0.000  0.000  0.000  0.000  0.000
       0.000  0.000  0.000  0.000  0.000  0.000  0.000
       0.000  0.000  0.000  0.000  0.000  0.000  0.000
       0.000  0.000  0.000  0.000  0.000  0.000  0.000
       0.000  0.000  0.000  0.000  0.000  0.000  0.000
       0.000  0.000  0.000  0.000  0.000  0.000  0.000
     --------------------- ATOM   44 ----------------------
     Tr[ns] (up, down, total) =   2.00000  0.00000  2.00000
     Atomic magnetic moment =   2.00000
     SPIN  1
     eigenvalues:
       0.286  0.286  0.286  0.286  0.286  0.286  0.286
     eigenvectors (columns):
       1.000  0.000  0.000  0.000  0.000  0.000  0.000
       0.000  1.000  0.000  0.000  0.000  0.000  0.000
       0.000  0.000  1.000  0.000  0.000  0.000  0.000
       0.000  0.000  0.000  1.000  0.000  0.000  0.000
       0.000  0.000  0.000  0.000  1.000  0.000  0.000
       0.000  0.000  0.000  0.000  0.000  1.000  0.000
       0.000  0.000  0.000  0.000  0.000  0.000  1.000
     occupation matrix ns (before diag.):
       0.286  0.000  0.000  0.000  0.000  0.000  0.000
       0.000  0.286  0.000  0.000  0.000  0.000  0.000
       0.000  0.000  0.286  0.000  0.000  0.000  0.000
       0.000  0.000  0.000  0.286  0.000  0.000  0.000
       0.000  0.000  0.000  0.000  0.286  0.000  0.000
       0.000  0.000  0.000  0.000  0.000  0.286  0.000
       0.000  0.000  0.000  0.000  0.000  0.000  0.286
     SPIN  2
     eigenvalues:
       0.000  0.000  0.000  0.000  0.000  0.000  0.000
     eigenvectors (columns):
       1.000  0.000  0.000  0.000  0.000  0.000  0.000
       0.000  1.000  0.000  0.000  0.000  0.000  0.000
       0.000  0.000  1.000  0.000  0.000  0.000  0.000
       0.000  0.000  0.000  1.000  0.000  0.000  0.000
       0.000  0.000  0.000  0.000  1.000  0.000  0.000
       0.000  0.000  0.000  0.000  0.000  1.000  0.000
       0.000  0.000  0.000  0.000  0.000  0.000  1.000
     occupation matrix ns (before diag.):
       0.000  0.000  0.000  0.000  0.000  0.000  0.000
       0.000  0.000  0.000  0.000  0.000  0.000  0.000
       0.000  0.000  0.000  0.000  0.000  0.000  0.000
       0.000  0.000  0.000  0.000  0.000  0.000  0.000
       0.000  0.000  0.000  0.000  0.000  0.000  0.000
       0.000  0.000  0.000  0.000  0.000  0.000  0.000
       0.000  0.000  0.000  0.000  0.000  0.000  0.000
     --------------------- ATOM   45 ----------------------
     Tr[ns] (up, down, total) =   2.00000  0.00000  2.00000
     Atomic magnetic moment =   2.00000
     SPIN  1
     eigenvalues:
       0.286  0.286  0.286  0.286  0.286  0.286  0.286
     eigenvectors (columns):
       1.000  0.000  0.000  0.000  0.000  0.000  0.000
       0.000  1.000  0.000  0.000  0.000  0.000  0.000
       0.000  0.000  1.000  0.000  0.000  0.000  0.000
       0.000  0.000  0.000  1.000  0.000  0.000  0.000
       0.000  0.000  0.000  0.000  1.000  0.000  0.000
       0.000  0.000  0.000  0.000  0.000  1.000  0.000
       0.000  0.000  0.000  0.000  0.000  0.000  1.000
     occupation matrix ns (before diag.):
       0.286  0.000  0.000  0.000  0.000  0.000  0.000
       0.000  0.286  0.000  0.000  0.000  0.000  0.000
       0.000  0.000  0.286  0.000  0.000  0.000  0.000
       0.000  0.000  0.000  0.286  0.000  0.000  0.000
       0.000  0.000  0.000  0.000  0.286  0.000  0.000
       0.000  0.000  0.000  0.000  0.000  0.286  0.000
       0.000  0.000  0.000  0.000  0.000  0.000  0.286
     SPIN  2
     eigenvalues:
       0.000  0.000  0.000  0.000  0.000  0.000  0.000
     eigenvectors (columns):
       1.000  0.000  0.000  0.000  0.000  0.000  0.000
       0.000  1.000  0.000  0.000  0.000  0.000  0.000
       0.000  0.000  1.000  0.000  0.000  0.000  0.000
       0.000  0.000  0.000  1.000  0.000  0.000  0.000
       0.000  0.000  0.000  0.000  1.000  0.000  0.000
       0.000  0.000  0.000  0.000  0.000  1.000  0.000
       0.000  0.000  0.000  0.000  0.000  0.000  1.000
     occupation matrix ns (before diag.):
       0.000  0.000  0.000  0.000  0.000  0.000  0.000
       0.000  0.000  0.000  0.000  0.000  0.000  0.000
       0.000  0.000  0.000  0.000  0.000  0.000  0.000
       0.000  0.000  0.000  0.000  0.000  0.000  0.000
       0.000  0.000  0.000  0.000  0.000  0.000  0.000
       0.000  0.000  0.000  0.000  0.000  0.000  0.000
       0.000  0.000  0.000  0.000  0.000  0.000  0.000
     --------------------- ATOM   46 ----------------------
     Tr[ns] (up, down, total) =   2.00000  0.00000  2.00000
     Atomic magnetic moment =   2.00000
     SPIN  1
     eigenvalues:
       0.286  0.286  0.286  0.286  0.286  0.286  0.286
     eigenvectors (columns):
       1.000  0.000  0.000  0.000  0.000  0.000  0.000
       0.000  1.000  0.000  0.000  0.000  0.000  0.000
       0.000  0.000  1.000  0.000  0.000  0.000  0.000
       0.000  0.000  0.000  1.000  0.000  0.000  0.000
       0.000  0.000  0.000  0.000  1.000  0.000  0.000
       0.000  0.000  0.000  0.000  0.000  1.000  0.000
       0.000  0.000  0.000  0.000  0.000  0.000  1.000
     occupation matrix ns (before diag.):
       0.286  0.000  0.000  0.000  0.000  0.000  0.000
       0.000  0.286  0.000  0.000  0.000  0.000  0.000
       0.000  0.000  0.286  0.000  0.000  0.000  0.000
       0.000  0.000  0.000  0.286  0.000  0.000  0.000
       0.000  0.000  0.000  0.000  0.286  0.000  0.000
       0.000  0.000  0.000  0.000  0.000  0.286  0.000
       0.000  0.000  0.000  0.000  0.000  0.000  0.286
     SPIN  2
     eigenvalues:
       0.000  0.000  0.000  0.000  0.000  0.000  0.000
     eigenvectors (columns):
       1.000  0.000  0.000  0.000  0.000  0.000  0.000
       0.000  1.000  0.000  0.000  0.000  0.000  0.000
       0.000  0.000  1.000  0.000  0.000  0.000  0.000
       0.000  0.000  0.000  1.000  0.000  0.000  0.000
       0.000  0.000  0.000  0.000  1.000  0.000  0.000
       0.000  0.000  0.000  0.000  0.000  1.000  0.000
       0.000  0.000  0.000  0.000  0.000  0.000  1.000
     occupation matrix ns (before diag.):
       0.000  0.000  0.000  0.000  0.000  0.000  0.000
       0.000  0.000  0.000  0.000  0.000  0.000  0.000
       0.000  0.000  0.000  0.000  0.000  0.000  0.000
       0.000  0.000  0.000  0.000  0.000  0.000  0.000
       0.000  0.000  0.000  0.000  0.000  0.000  0.000
       0.000  0.000  0.000  0.000  0.000  0.000  0.000
       0.000  0.000  0.000  0.000  0.000  0.000  0.000
     --------------------- ATOM   47 ----------------------
     Tr[ns] (up, down, total) =   2.00000  0.00000  2.00000
     Atomic magnetic moment =   2.00000
     SPIN  1
     eigenvalues:
       0.286  0.286  0.286  0.286  0.286  0.286  0.286
     eigenvectors (columns):
       1.000  0.000  0.000  0.000  0.000  0.000  0.000
       0.000  1.000  0.000  0.000  0.000  0.000  0.000
       0.000  0.000  1.000  0.000  0.000  0.000  0.000
       0.000  0.000  0.000  1.000  0.000  0.000  0.000
       0.000  0.000  0.000  0.000  1.000  0.000  0.000
       0.000  0.000  0.000  0.000  0.000  1.000  0.000
       0.000  0.000  0.000  0.000  0.000  0.000  1.000
     occupation matrix ns (before diag.):
       0.286  0.000  0.000  0.000  0.000  0.000  0.000
       0.000  0.286  0.000  0.000  0.000  0.000  0.000
       0.000  0.000  0.286  0.000  0.000  0.000  0.000
       0.000  0.000  0.000  0.286  0.000  0.000  0.000
       0.000  0.000  0.000  0.000  0.286  0.000  0.000
       0.000  0.000  0.000  0.000  0.000  0.286  0.000
       0.000  0.000  0.000  0.000  0.000  0.000  0.286
     SPIN  2
     eigenvalues:
       0.000  0.000  0.000  0.000  0.000  0.000  0.000
     eigenvectors (columns):
       1.000  0.000  0.000  0.000  0.000  0.000  0.000
       0.000  1.000  0.000  0.000  0.000  0.000  0.000
       0.000  0.000  1.000  0.000  0.000  0.000  0.000
       0.000  0.000  0.000  1.000  0.000  0.000  0.000
       0.000  0.000  0.000  0.000  1.000  0.000  0.000
       0.000  0.000  0.000  0.000  0.000  1.000  0.000
       0.000  0.000  0.000  0.000  0.000  0.000  1.000
     occupation matrix ns (before diag.):
       0.000  0.000  0.000  0.000  0.000  0.000  0.000
       0.000  0.000  0.000  0.000  0.000  0.000  0.000
       0.000  0.000  0.000  0.000  0.000  0.000  0.000
       0.000  0.000  0.000  0.000  0.000  0.000  0.000
       0.000  0.000  0.000  0.000  0.000  0.000  0.000
       0.000  0.000  0.000  0.000  0.000  0.000  0.000
       0.000  0.000  0.000  0.000  0.000  0.000  0.000
     --------------------- ATOM   48 ----------------------
     Tr[ns] (up, down, total) =   2.00000  0.00000  2.00000
     Atomic magnetic moment =   2.00000
     SPIN  1
     eigenvalues:
       0.286  0.286  0.286  0.286  0.286  0.286  0.286
     eigenvectors (columns):
       1.000  0.000  0.000  0.000  0.000  0.000  0.000
       0.000  1.000  0.000  0.000  0.000  0.000  0.000
       0.000  0.000  1.000  0.000  0.000  0.000  0.000
       0.000  0.000  0.000  1.000  0.000  0.000  0.000
       0.000  0.000  0.000  0.000  1.000  0.000  0.000
       0.000  0.000  0.000  0.000  0.000  1.000  0.000
       0.000  0.000  0.000  0.000  0.000  0.000  1.000
     occupation matrix ns (before diag.):
       0.286  0.000  0.000  0.000  0.000  0.000  0.000
       0.000  0.286  0.000  0.000  0.000  0.000  0.000
       0.000  0.000  0.286  0.000  0.000  0.000  0.000
       0.000  0.000  0.000  0.286  0.000  0.000  0.000
       0.000  0.000  0.000  0.000  0.286  0.000  0.000
       0.000  0.000  0.000  0.000  0.000  0.286  0.000
       0.000  0.000  0.000  0.000  0.000  0.000  0.286
     SPIN  2
     eigenvalues:
       0.000  0.000  0.000  0.000  0.000  0.000  0.000
     eigenvectors (columns):
       1.000  0.000  0.000  0.000  0.000  0.000  0.000
       0.000  1.000  0.000  0.000  0.000  0.000  0.000
       0.000  0.000  1.000  0.000  0.000  0.000  0.000
       0.000  0.000  0.000  1.000  0.000  0.000  0.000
       0.000  0.000  0.000  0.000  1.000  0.000  0.000
       0.000  0.000  0.000  0.000  0.000  1.000  0.000
       0.000  0.000  0.000  0.000  0.000  0.000  1.000
     occupation matrix ns (before diag.):
       0.000  0.000  0.000  0.000  0.000  0.000  0.000
       0.000  0.000  0.000  0.000  0.000  0.000  0.000
       0.000  0.000  0.000  0.000  0.000  0.000  0.000
       0.000  0.000  0.000  0.000  0.000  0.000  0.000
       0.000  0.000  0.000  0.000  0.000  0.000  0.000
       0.000  0.000  0.000  0.000  0.000  0.000  0.000
       0.000  0.000  0.000  0.000  0.000  0.000  0.000
     --------------------- ATOM   49 ----------------------
     Tr[ns] (up, down, total) =   2.00000  0.00000  2.00000
     Atomic magnetic moment =   2.00000
     SPIN  1
     eigenvalues:
       0.286  0.286  0.286  0.286  0.286  0.286  0.286
     eigenvectors (columns):
       1.000  0.000  0.000  0.000  0.000  0.000  0.000
       0.000  1.000  0.000  0.000  0.000  0.000  0.000
       0.000  0.000  1.000  0.000  0.000  0.000  0.000
       0.000  0.000  0.000  1.000  0.000  0.000  0.000
       0.000  0.000  0.000  0.000  1.000  0.000  0.000
       0.000  0.000  0.000  0.000  0.000  1.000  0.000
       0.000  0.000  0.000  0.000  0.000  0.000  1.000
     occupation matrix ns (before diag.):
       0.286  0.000  0.000  0.000  0.000  0.000  0.000
       0.000  0.286  0.000  0.000  0.000  0.000  0.000
       0.000  0.000  0.286  0.000  0.000  0.000  0.000
       0.000  0.000  0.000  0.286  0.000  0.000  0.000
       0.000  0.000  0.000  0.000  0.286  0.000  0.000
       0.000  0.000  0.000  0.000  0.000  0.286  0.000
       0.000  0.000  0.000  0.000  0.000  0.000  0.286
     SPIN  2
     eigenvalues:
       0.000  0.000  0.000  0.000  0.000  0.000  0.000
     eigenvectors (columns):
       1.000  0.000  0.000  0.000  0.000  0.000  0.000
       0.000  1.000  0.000  0.000  0.000  0.000  0.000
       0.000  0.000  1.000  0.000  0.000  0.000  0.000
       0.000  0.000  0.000  1.000  0.000  0.000  0.000
       0.000  0.000  0.000  0.000  1.000  0.000  0.000
       0.000  0.000  0.000  0.000  0.000  1.000  0.000
       0.000  0.000  0.000  0.000  0.000  0.000  1.000
     occupation matrix ns (before diag.):
       0.000  0.000  0.000  0.000  0.000  0.000  0.000
       0.000  0.000  0.000  0.000  0.000  0.000  0.000
       0.000  0.000  0.000  0.000  0.000  0.000  0.000
       0.000  0.000  0.000  0.000  0.000  0.000  0.000
       0.000  0.000  0.000  0.000  0.000  0.000  0.000
       0.000  0.000  0.000  0.000  0.000  0.000  0.000
       0.000  0.000  0.000  0.000  0.000  0.000  0.000
     --------------------- ATOM   50 ----------------------
     Tr[ns] (up, down, total) =   2.00000  0.00000  2.00000
     Atomic magnetic moment =   2.00000
     SPIN  1
     eigenvalues:
       0.286  0.286  0.286  0.286  0.286  0.286  0.286
     eigenvectors (columns):
       1.000  0.000  0.000  0.000  0.000  0.000  0.000
       0.000  1.000  0.000  0.000  0.000  0.000  0.000
       0.000  0.000  1.000  0.000  0.000  0.000  0.000
       0.000  0.000  0.000  1.000  0.000  0.000  0.000
       0.000  0.000  0.000  0.000  1.000  0.000  0.000
       0.000  0.000  0.000  0.000  0.000  1.000  0.000
       0.000  0.000  0.000  0.000  0.000  0.000  1.000
     occupation matrix ns (before diag.):
       0.286  0.000  0.000  0.000  0.000  0.000  0.000
       0.000  0.286  0.000  0.000  0.000  0.000  0.000
       0.000  0.000  0.286  0.000  0.000  0.000  0.000
       0.000  0.000  0.000  0.286  0.000  0.000  0.000
       0.000  0.000  0.000  0.000  0.286  0.000  0.000
       0.000  0.000  0.000  0.000  0.000  0.286  0.000
       0.000  0.000  0.000  0.000  0.000  0.000  0.286
     SPIN  2
     eigenvalues:
       0.000  0.000  0.000  0.000  0.000  0.000  0.000
     eigenvectors (columns):
       1.000  0.000  0.000  0.000  0.000  0.000  0.000
       0.000  1.000  0.000  0.000  0.000  0.000  0.000
       0.000  0.000  1.000  0.000  0.000  0.000  0.000
       0.000  0.000  0.000  1.000  0.000  0.000  0.000
       0.000  0.000  0.000  0.000  1.000  0.000  0.000
       0.000  0.000  0.000  0.000  0.000  1.000  0.000
       0.000  0.000  0.000  0.000  0.000  0.000  1.000
     occupation matrix ns (before diag.):
       0.000  0.000  0.000  0.000  0.000  0.000  0.000
       0.000  0.000  0.000  0.000  0.000  0.000  0.000
       0.000  0.000  0.000  0.000  0.000  0.000  0.000
       0.000  0.000  0.000  0.000  0.000  0.000  0.000
       0.000  0.000  0.000  0.000  0.000  0.000  0.000
       0.000  0.000  0.000  0.000  0.000  0.000  0.000
       0.000  0.000  0.000  0.000  0.000  0.000  0.000
     --------------------- ATOM   51 ----------------------
     Tr[ns] (up, down, total) =   2.00000  0.00000  2.00000
     Atomic magnetic moment =   2.00000
     SPIN  1
     eigenvalues:
       0.286  0.286  0.286  0.286  0.286  0.286  0.286
     eigenvectors (columns):
       1.000  0.000  0.000  0.000  0.000  0.000  0.000
       0.000  1.000  0.000  0.000  0.000  0.000  0.000
       0.000  0.000  1.000  0.000  0.000  0.000  0.000
       0.000  0.000  0.000  1.000  0.000  0.000  0.000
       0.000  0.000  0.000  0.000  1.000  0.000  0.000
       0.000  0.000  0.000  0.000  0.000  1.000  0.000
       0.000  0.000  0.000  0.000  0.000  0.000  1.000
     occupation matrix ns (before diag.):
       0.286  0.000  0.000  0.000  0.000  0.000  0.000
       0.000  0.286  0.000  0.000  0.000  0.000  0.000
       0.000  0.000  0.286  0.000  0.000  0.000  0.000
       0.000  0.000  0.000  0.286  0.000  0.000  0.000
       0.000  0.000  0.000  0.000  0.286  0.000  0.000
       0.000  0.000  0.000  0.000  0.000  0.286  0.000
       0.000  0.000  0.000  0.000  0.000  0.000  0.286
     SPIN  2
     eigenvalues:
       0.000  0.000  0.000  0.000  0.000  0.000  0.000
     eigenvectors (columns):
       1.000  0.000  0.000  0.000  0.000  0.000  0.000
       0.000  1.000  0.000  0.000  0.000  0.000  0.000
       0.000  0.000  1.000  0.000  0.000  0.000  0.000
       0.000  0.000  0.000  1.000  0.000  0.000  0.000
       0.000  0.000  0.000  0.000  1.000  0.000  0.000
       0.000  0.000  0.000  0.000  0.000  1.000  0.000
       0.000  0.000  0.000  0.000  0.000  0.000  1.000
     occupation matrix ns (before diag.):
       0.000  0.000  0.000  0.000  0.000  0.000  0.000
       0.000  0.000  0.000  0.000  0.000  0.000  0.000
       0.000  0.000  0.000  0.000  0.000  0.000  0.000
       0.000  0.000  0.000  0.000  0.000  0.000  0.000
       0.000  0.000  0.000  0.000  0.000  0.000  0.000
       0.000  0.000  0.000  0.000  0.000  0.000  0.000
       0.000  0.000  0.000  0.000  0.000  0.000  0.000
     --------------------- ATOM   52 ----------------------
     Tr[ns] (up, down, total) =   2.00000  0.00000  2.00000
     Atomic magnetic moment =   2.00000
     SPIN  1
     eigenvalues:
       0.286  0.286  0.286  0.286  0.286  0.286  0.286
     eigenvectors (columns):
       1.000  0.000  0.000  0.000  0.000  0.000  0.000
       0.000  1.000  0.000  0.000  0.000  0.000  0.000
       0.000  0.000  1.000  0.000  0.000  0.000  0.000
       0.000  0.000  0.000  1.000  0.000  0.000  0.000
       0.000  0.000  0.000  0.000  1.000  0.000  0.000
       0.000  0.000  0.000  0.000  0.000  1.000  0.000
       0.000  0.000  0.000  0.000  0.000  0.000  1.000
     occupation matrix ns (before diag.):
       0.286  0.000  0.000  0.000  0.000  0.000  0.000
       0.000  0.286  0.000  0.000  0.000  0.000  0.000
       0.000  0.000  0.286  0.000  0.000  0.000  0.000
       0.000  0.000  0.000  0.286  0.000  0.000  0.000
       0.000  0.000  0.000  0.000  0.286  0.000  0.000
       0.000  0.000  0.000  0.000  0.000  0.286  0.000
       0.000  0.000  0.000  0.000  0.000  0.000  0.286
     SPIN  2
     eigenvalues:
       0.000  0.000  0.000  0.000  0.000  0.000  0.000
     eigenvectors (columns):
       1.000  0.000  0.000  0.000  0.000  0.000  0.000
       0.000  1.000  0.000  0.000  0.000  0.000  0.000
       0.000  0.000  1.000  0.000  0.000  0.000  0.000
       0.000  0.000  0.000  1.000  0.000  0.000  0.000
       0.000  0.000  0.000  0.000  1.000  0.000  0.000
       0.000  0.000  0.000  0.000  0.000  1.000  0.000
       0.000  0.000  0.000  0.000  0.000  0.000  1.000
     occupation matrix ns (before diag.):
       0.000  0.000  0.000  0.000  0.000  0.000  0.000
       0.000  0.000  0.000  0.000  0.000  0.000  0.000
       0.000  0.000  0.000  0.000  0.000  0.000  0.000
       0.000  0.000  0.000  0.000  0.000  0.000  0.000
       0.000  0.000  0.000  0.000  0.000  0.000  0.000
       0.000  0.000  0.000  0.000  0.000  0.000  0.000
       0.000  0.000  0.000  0.000  0.000  0.000  0.000
     --------------------- ATOM   53 ----------------------
     Tr[ns] (up, down, total) =   2.00000  0.00000  2.00000
     Atomic magnetic moment =   2.00000
     SPIN  1
     eigenvalues:
       0.286  0.286  0.286  0.286  0.286  0.286  0.286
     eigenvectors (columns):
       1.000  0.000  0.000  0.000  0.000  0.000  0.000
       0.000  1.000  0.000  0.000  0.000  0.000  0.000
       0.000  0.000  1.000  0.000  0.000  0.000  0.000
       0.000  0.000  0.000  1.000  0.000  0.000  0.000
       0.000  0.000  0.000  0.000  1.000  0.000  0.000
       0.000  0.000  0.000  0.000  0.000  1.000  0.000
       0.000  0.000  0.000  0.000  0.000  0.000  1.000
     occupation matrix ns (before diag.):
       0.286  0.000  0.000  0.000  0.000  0.000  0.000
       0.000  0.286  0.000  0.000  0.000  0.000  0.000
       0.000  0.000  0.286  0.000  0.000  0.000  0.000
       0.000  0.000  0.000  0.286  0.000  0.000  0.000
       0.000  0.000  0.000  0.000  0.286  0.000  0.000
       0.000  0.000  0.000  0.000  0.000  0.286  0.000
       0.000  0.000  0.000  0.000  0.000  0.000  0.286
     SPIN  2
     eigenvalues:
       0.000  0.000  0.000  0.000  0.000  0.000  0.000
     eigenvectors (columns):
       1.000  0.000  0.000  0.000  0.000  0.000  0.000
       0.000  1.000  0.000  0.000  0.000  0.000  0.000
       0.000  0.000  1.000  0.000  0.000  0.000  0.000
       0.000  0.000  0.000  1.000  0.000  0.000  0.000
       0.000  0.000  0.000  0.000  1.000  0.000  0.000
       0.000  0.000  0.000  0.000  0.000  1.000  0.000
       0.000  0.000  0.000  0.000  0.000  0.000  1.000
     occupation matrix ns (before diag.):
       0.000  0.000  0.000  0.000  0.000  0.000  0.000
       0.000  0.000  0.000  0.000  0.000  0.000  0.000
       0.000  0.000  0.000  0.000  0.000  0.000  0.000
       0.000  0.000  0.000  0.000  0.000  0.000  0.000
       0.000  0.000  0.000  0.000  0.000  0.000  0.000
       0.000  0.000  0.000  0.000  0.000  0.000  0.000
       0.000  0.000  0.000  0.000  0.000  0.000  0.000
     --------------------- ATOM   54 ----------------------
     Tr[ns] (up, down, total) =   2.00000  0.00000  2.00000
     Atomic magnetic moment =   2.00000
     SPIN  1
     eigenvalues:
       0.286  0.286  0.286  0.286  0.286  0.286  0.286
     eigenvectors (columns):
       1.000  0.000  0.000  0.000  0.000  0.000  0.000
       0.000  1.000  0.000  0.000  0.000  0.000  0.000
       0.000  0.000  1.000  0.000  0.000  0.000  0.000
       0.000  0.000  0.000  1.000  0.000  0.000  0.000
       0.000  0.000  0.000  0.000  1.000  0.000  0.000
       0.000  0.000  0.000  0.000  0.000  1.000  0.000
       0.000  0.000  0.000  0.000  0.000  0.000  1.000
     occupation matrix ns (before diag.):
       0.286  0.000  0.000  0.000  0.000  0.000  0.000
       0.000  0.286  0.000  0.000  0.000  0.000  0.000
       0.000  0.000  0.286  0.000  0.000  0.000  0.000
       0.000  0.000  0.000  0.286  0.000  0.000  0.000
       0.000  0.000  0.000  0.000  0.286  0.000  0.000
       0.000  0.000  0.000  0.000  0.000  0.286  0.000
       0.000  0.000  0.000  0.000  0.000  0.000  0.286
     SPIN  2
     eigenvalues:
       0.000  0.000  0.000  0.000  0.000  0.000  0.000
     eigenvectors (columns):
       1.000  0.000  0.000  0.000  0.000  0.000  0.000
       0.000  1.000  0.000  0.000  0.000  0.000  0.000
       0.000  0.000  1.000  0.000  0.000  0.000  0.000
       0.000  0.000  0.000  1.000  0.000  0.000  0.000
       0.000  0.000  0.000  0.000  1.000  0.000  0.000
       0.000  0.000  0.000  0.000  0.000  1.000  0.000
       0.000  0.000  0.000  0.000  0.000  0.000  1.000
     occupation matrix ns (before diag.):
       0.000  0.000  0.000  0.000  0.000  0.000  0.000
       0.000  0.000  0.000  0.000  0.000  0.000  0.000
       0.000  0.000  0.000  0.000  0.000  0.000  0.000
       0.000  0.000  0.000  0.000  0.000  0.000  0.000
       0.000  0.000  0.000  0.000  0.000  0.000  0.000
       0.000  0.000  0.000  0.000  0.000  0.000  0.000
       0.000  0.000  0.000  0.000  0.000  0.000  0.000
     --------------------- ATOM   55 ----------------------
     Tr[ns] (up, down, total) =   2.00000  0.00000  2.00000
     Atomic magnetic moment =   2.00000
     SPIN  1
     eigenvalues:
       0.286  0.286  0.286  0.286  0.286  0.286  0.286
     eigenvectors (columns):
       1.000  0.000  0.000  0.000  0.000  0.000  0.000
       0.000  1.000  0.000  0.000  0.000  0.000  0.000
       0.000  0.000  1.000  0.000  0.000  0.000  0.000
       0.000  0.000  0.000  1.000  0.000  0.000  0.000
       0.000  0.000  0.000  0.000  1.000  0.000  0.000
       0.000  0.000  0.000  0.000  0.000  1.000  0.000
       0.000  0.000  0.000  0.000  0.000  0.000  1.000
     occupation matrix ns (before diag.):
       0.286  0.000  0.000  0.000  0.000  0.000  0.000
       0.000  0.286  0.000  0.000  0.000  0.000  0.000
       0.000  0.000  0.286  0.000  0.000  0.000  0.000
       0.000  0.000  0.000  0.286  0.000  0.000  0.000
       0.000  0.000  0.000  0.000  0.286  0.000  0.000
       0.000  0.000  0.000  0.000  0.000  0.286  0.000
       0.000  0.000  0.000  0.000  0.000  0.000  0.286
     SPIN  2
     eigenvalues:
       0.000  0.000  0.000  0.000  0.000  0.000  0.000
     eigenvectors (columns):
       1.000  0.000  0.000  0.000  0.000  0.000  0.000
       0.000  1.000  0.000  0.000  0.000  0.000  0.000
       0.000  0.000  1.000  0.000  0.000  0.000  0.000
       0.000  0.000  0.000  1.000  0.000  0.000  0.000
       0.000  0.000  0.000  0.000  1.000  0.000  0.000
       0.000  0.000  0.000  0.000  0.000  1.000  0.000
       0.000  0.000  0.000  0.000  0.000  0.000  1.000
     occupation matrix ns (before diag.):
       0.000  0.000  0.000  0.000  0.000  0.000  0.000
       0.000  0.000  0.000  0.000  0.000  0.000  0.000
       0.000  0.000  0.000  0.000  0.000  0.000  0.000
       0.000  0.000  0.000  0.000  0.000  0.000  0.000
       0.000  0.000  0.000  0.000  0.000  0.000  0.000
       0.000  0.000  0.000  0.000  0.000  0.000  0.000
       0.000  0.000  0.000  0.000  0.000  0.000  0.000
     --------------------- ATOM   56 ----------------------
     Tr[ns] (up, down, total) =   2.00000  0.00000  2.00000
     Atomic magnetic moment =   2.00000
     SPIN  1
     eigenvalues:
       0.286  0.286  0.286  0.286  0.286  0.286  0.286
     eigenvectors (columns):
       1.000  0.000  0.000  0.000  0.000  0.000  0.000
       0.000  1.000  0.000  0.000  0.000  0.000  0.000
       0.000  0.000  1.000  0.000  0.000  0.000  0.000
       0.000  0.000  0.000  1.000  0.000  0.000  0.000
       0.000  0.000  0.000  0.000  1.000  0.000  0.000
       0.000  0.000  0.000  0.000  0.000  1.000  0.000
       0.000  0.000  0.000  0.000  0.000  0.000  1.000
     occupation matrix ns (before diag.):
       0.286  0.000  0.000  0.000  0.000  0.000  0.000
       0.000  0.286  0.000  0.000  0.000  0.000  0.000
       0.000  0.000  0.286  0.000  0.000  0.000  0.000
       0.000  0.000  0.000  0.286  0.000  0.000  0.000
       0.000  0.000  0.000  0.000  0.286  0.000  0.000
       0.000  0.000  0.000  0.000  0.000  0.286  0.000
       0.000  0.000  0.000  0.000  0.000  0.000  0.286
     SPIN  2
     eigenvalues:
       0.000  0.000  0.000  0.000  0.000  0.000  0.000
     eigenvectors (columns):
       1.000  0.000  0.000  0.000  0.000  0.000  0.000
       0.000  1.000  0.000  0.000  0.000  0.000  0.000
       0.000  0.000  1.000  0.000  0.000  0.000  0.000
       0.000  0.000  0.000  1.000  0.000  0.000  0.000
       0.000  0.000  0.000  0.000  1.000  0.000  0.000
       0.000  0.000  0.000  0.000  0.000  1.000  0.000
       0.000  0.000  0.000  0.000  0.000  0.000  1.000
     occupation matrix ns (before diag.):
       0.000  0.000  0.000  0.000  0.000  0.000  0.000
       0.000  0.000  0.000  0.000  0.000  0.000  0.000
       0.000  0.000  0.000  0.000  0.000  0.000  0.000
       0.000  0.000  0.000  0.000  0.000  0.000  0.000
       0.000  0.000  0.000  0.000  0.000  0.000  0.000
       0.000  0.000  0.000  0.000  0.000  0.000  0.000
       0.000  0.000  0.000  0.000  0.000  0.000  0.000
     --------------------- ATOM   57 ----------------------
     Tr[ns] (up, down, total) =   2.00000  0.00000  2.00000
     Atomic magnetic moment =   2.00000
     SPIN  1
     eigenvalues:
       0.286  0.286  0.286  0.286  0.286  0.286  0.286
     eigenvectors (columns):
       1.000  0.000  0.000  0.000  0.000  0.000  0.000
       0.000  1.000  0.000  0.000  0.000  0.000  0.000
       0.000  0.000  1.000  0.000  0.000  0.000  0.000
       0.000  0.000  0.000  1.000  0.000  0.000  0.000
       0.000  0.000  0.000  0.000  1.000  0.000  0.000
       0.000  0.000  0.000  0.000  0.000  1.000  0.000
       0.000  0.000  0.000  0.000  0.000  0.000  1.000
     occupation matrix ns (before diag.):
       0.286  0.000  0.000  0.000  0.000  0.000  0.000
       0.000  0.286  0.000  0.000  0.000  0.000  0.000
       0.000  0.000  0.286  0.000  0.000  0.000  0.000
       0.000  0.000  0.000  0.286  0.000  0.000  0.000
       0.000  0.000  0.000  0.000  0.286  0.000  0.000
       0.000  0.000  0.000  0.000  0.000  0.286  0.000
       0.000  0.000  0.000  0.000  0.000  0.000  0.286
     SPIN  2
     eigenvalues:
       0.000  0.000  0.000  0.000  0.000  0.000  0.000
     eigenvectors (columns):
       1.000  0.000  0.000  0.000  0.000  0.000  0.000
       0.000  1.000  0.000  0.000  0.000  0.000  0.000
       0.000  0.000  1.000  0.000  0.000  0.000  0.000
       0.000  0.000  0.000  1.000  0.000  0.000  0.000
       0.000  0.000  0.000  0.000  1.000  0.000  0.000
       0.000  0.000  0.000  0.000  0.000  1.000  0.000
       0.000  0.000  0.000  0.000  0.000  0.000  1.000
     occupation matrix ns (before diag.):
       0.000  0.000  0.000  0.000  0.000  0.000  0.000
       0.000  0.000  0.000  0.000  0.000  0.000  0.000
       0.000  0.000  0.000  0.000  0.000  0.000  0.000
       0.000  0.000  0.000  0.000  0.000  0.000  0.000
       0.000  0.000  0.000  0.000  0.000  0.000  0.000
       0.000  0.000  0.000  0.000  0.000  0.000  0.000
       0.000  0.000  0.000  0.000  0.000  0.000  0.000
     --------------------- ATOM   58 ----------------------
     Tr[ns] (up, down, total) =   2.00000  0.00000  2.00000
     Atomic magnetic moment =   2.00000
     SPIN  1
     eigenvalues:
       0.286  0.286  0.286  0.286  0.286  0.286  0.286
     eigenvectors (columns):
       1.000  0.000  0.000  0.000  0.000  0.000  0.000
       0.000  1.000  0.000  0.000  0.000  0.000  0.000
       0.000  0.000  1.000  0.000  0.000  0.000  0.000
       0.000  0.000  0.000  1.000  0.000  0.000  0.000
       0.000  0.000  0.000  0.000  1.000  0.000  0.000
       0.000  0.000  0.000  0.000  0.000  1.000  0.000
       0.000  0.000  0.000  0.000  0.000  0.000  1.000
     occupation matrix ns (before diag.):
       0.286  0.000  0.000  0.000  0.000  0.000  0.000
       0.000  0.286  0.000  0.000  0.000  0.000  0.000
       0.000  0.000  0.286  0.000  0.000  0.000  0.000
       0.000  0.000  0.000  0.286  0.000  0.000  0.000
       0.000  0.000  0.000  0.000  0.286  0.000  0.000
       0.000  0.000  0.000  0.000  0.000  0.286  0.000
       0.000  0.000  0.000  0.000  0.000  0.000  0.286
     SPIN  2
     eigenvalues:
       0.000  0.000  0.000  0.000  0.000  0.000  0.000
     eigenvectors (columns):
       1.000  0.000  0.000  0.000  0.000  0.000  0.000
       0.000  1.000  0.000  0.000  0.000  0.000  0.000
       0.000  0.000  1.000  0.000  0.000  0.000  0.000
       0.000  0.000  0.000  1.000  0.000  0.000  0.000
       0.000  0.000  0.000  0.000  1.000  0.000  0.000
       0.000  0.000  0.000  0.000  0.000  1.000  0.000
       0.000  0.000  0.000  0.000  0.000  0.000  1.000
     occupation matrix ns (before diag.):
       0.000  0.000  0.000  0.000  0.000  0.000  0.000
       0.000  0.000  0.000  0.000  0.000  0.000  0.000
       0.000  0.000  0.000  0.000  0.000  0.000  0.000
       0.000  0.000  0.000  0.000  0.000  0.000  0.000
       0.000  0.000  0.000  0.000  0.000  0.000  0.000
       0.000  0.000  0.000  0.000  0.000  0.000  0.000
       0.000  0.000  0.000  0.000  0.000  0.000  0.000
     --------------------- ATOM   59 ----------------------
     Tr[ns] (up, down, total) =   2.00000  0.00000  2.00000
     Atomic magnetic moment =   2.00000
     SPIN  1
     eigenvalues:
       0.286  0.286  0.286  0.286  0.286  0.286  0.286
     eigenvectors (columns):
       1.000  0.000  0.000  0.000  0.000  0.000  0.000
       0.000  1.000  0.000  0.000  0.000  0.000  0.000
       0.000  0.000  1.000  0.000  0.000  0.000  0.000
       0.000  0.000  0.000  1.000  0.000  0.000  0.000
       0.000  0.000  0.000  0.000  1.000  0.000  0.000
       0.000  0.000  0.000  0.000  0.000  1.000  0.000
       0.000  0.000  0.000  0.000  0.000  0.000  1.000
     occupation matrix ns (before diag.):
       0.286  0.000  0.000  0.000  0.000  0.000  0.000
       0.000  0.286  0.000  0.000  0.000  0.000  0.000
       0.000  0.000  0.286  0.000  0.000  0.000  0.000
       0.000  0.000  0.000  0.286  0.000  0.000  0.000
       0.000  0.000  0.000  0.000  0.286  0.000  0.000
       0.000  0.000  0.000  0.000  0.000  0.286  0.000
       0.000  0.000  0.000  0.000  0.000  0.000  0.286
     SPIN  2
     eigenvalues:
       0.000  0.000  0.000  0.000  0.000  0.000  0.000
     eigenvectors (columns):
       1.000  0.000  0.000  0.000  0.000  0.000  0.000
       0.000  1.000  0.000  0.000  0.000  0.000  0.000
       0.000  0.000  1.000  0.000  0.000  0.000  0.000
       0.000  0.000  0.000  1.000  0.000  0.000  0.000
       0.000  0.000  0.000  0.000  1.000  0.000  0.000
       0.000  0.000  0.000  0.000  0.000  1.000  0.000
       0.000  0.000  0.000  0.000  0.000  0.000  1.000
     occupation matrix ns (before diag.):
       0.000  0.000  0.000  0.000  0.000  0.000  0.000
       0.000  0.000  0.000  0.000  0.000  0.000  0.000
       0.000  0.000  0.000  0.000  0.000  0.000  0.000
       0.000  0.000  0.000  0.000  0.000  0.000  0.000
       0.000  0.000  0.000  0.000  0.000  0.000  0.000
       0.000  0.000  0.000  0.000  0.000  0.000  0.000
       0.000  0.000  0.000  0.000  0.000  0.000  0.000
     --------------------- ATOM   60 ----------------------
     Tr[ns] (up, down, total) =   2.00000  0.00000  2.00000
     Atomic magnetic moment =   2.00000
     SPIN  1
     eigenvalues:
       0.286  0.286  0.286  0.286  0.286  0.286  0.286
     eigenvectors (columns):
       1.000  0.000  0.000  0.000  0.000  0.000  0.000
       0.000  1.000  0.000  0.000  0.000  0.000  0.000
       0.000  0.000  1.000  0.000  0.000  0.000  0.000
       0.000  0.000  0.000  1.000  0.000  0.000  0.000
       0.000  0.000  0.000  0.000  1.000  0.000  0.000
       0.000  0.000  0.000  0.000  0.000  1.000  0.000
       0.000  0.000  0.000  0.000  0.000  0.000  1.000
     occupation matrix ns (before diag.):
       0.286  0.000  0.000  0.000  0.000  0.000  0.000
       0.000  0.286  0.000  0.000  0.000  0.000  0.000
       0.000  0.000  0.286  0.000  0.000  0.000  0.000
       0.000  0.000  0.000  0.286  0.000  0.000  0.000
       0.000  0.000  0.000  0.000  0.286  0.000  0.000
       0.000  0.000  0.000  0.000  0.000  0.286  0.000
       0.000  0.000  0.000  0.000  0.000  0.000  0.286
     SPIN  2
     eigenvalues:
       0.000  0.000  0.000  0.000  0.000  0.000  0.000
     eigenvectors (columns):
       1.000  0.000  0.000  0.000  0.000  0.000  0.000
       0.000  1.000  0.000  0.000  0.000  0.000  0.000
       0.000  0.000  1.000  0.000  0.000  0.000  0.000
       0.000  0.000  0.000  1.000  0.000  0.000  0.000
       0.000  0.000  0.000  0.000  1.000  0.000  0.000
       0.000  0.000  0.000  0.000  0.000  1.000  0.000
       0.000  0.000  0.000  0.000  0.000  0.000  1.000
     occupation matrix ns (before diag.):
       0.000  0.000  0.000  0.000  0.000  0.000  0.000
       0.000  0.000  0.000  0.000  0.000  0.000  0.000
       0.000  0.000  0.000  0.000  0.000  0.000  0.000
       0.000  0.000  0.000  0.000  0.000  0.000  0.000
       0.000  0.000  0.000  0.000  0.000  0.000  0.000
       0.000  0.000  0.000  0.000  0.000  0.000  0.000
       0.000  0.000  0.000  0.000  0.000  0.000  0.000
     --------------------- ATOM   61 ----------------------
     Tr[ns] (up, down, total) =   2.00000  0.00000  2.00000
     Atomic magnetic moment =   2.00000
     SPIN  1
     eigenvalues:
       0.286  0.286  0.286  0.286  0.286  0.286  0.286
     eigenvectors (columns):
       1.000  0.000  0.000  0.000  0.000  0.000  0.000
       0.000  1.000  0.000  0.000  0.000  0.000  0.000
       0.000  0.000  1.000  0.000  0.000  0.000  0.000
       0.000  0.000  0.000  1.000  0.000  0.000  0.000
       0.000  0.000  0.000  0.000  1.000  0.000  0.000
       0.000  0.000  0.000  0.000  0.000  1.000  0.000
       0.000  0.000  0.000  0.000  0.000  0.000  1.000
     occupation matrix ns (before diag.):
       0.286  0.000  0.000  0.000  0.000  0.000  0.000
       0.000  0.286  0.000  0.000  0.000  0.000  0.000
       0.000  0.000  0.286  0.000  0.000  0.000  0.000
       0.000  0.000  0.000  0.286  0.000  0.000  0.000
       0.000  0.000  0.000  0.000  0.286  0.000  0.000
       0.000  0.000  0.000  0.000  0.000  0.286  0.000
       0.000  0.000  0.000  0.000  0.000  0.000  0.286
     SPIN  2
     eigenvalues:
       0.000  0.000  0.000  0.000  0.000  0.000  0.000
     eigenvectors (columns):
       1.000  0.000  0.000  0.000  0.000  0.000  0.000
       0.000  1.000  0.000  0.000  0.000  0.000  0.000
       0.000  0.000  1.000  0.000  0.000  0.000  0.000
       0.000  0.000  0.000  1.000  0.000  0.000  0.000
       0.000  0.000  0.000  0.000  1.000  0.000  0.000
       0.000  0.000  0.000  0.000  0.000  1.000  0.000
       0.000  0.000  0.000  0.000  0.000  0.000  1.000
     occupation matrix ns (before diag.):
       0.000  0.000  0.000  0.000  0.000  0.000  0.000
       0.000  0.000  0.000  0.000  0.000  0.000  0.000
       0.000  0.000  0.000  0.000  0.000  0.000  0.000
       0.000  0.000  0.000  0.000  0.000  0.000  0.000
       0.000  0.000  0.000  0.000  0.000  0.000  0.000
       0.000  0.000  0.000  0.000  0.000  0.000  0.000
       0.000  0.000  0.000  0.000  0.000  0.000  0.000
     --------------------- ATOM   62 ----------------------
     Tr[ns] (up, down, total) =   2.00000  0.00000  2.00000
     Atomic magnetic moment =   2.00000
     SPIN  1
     eigenvalues:
       0.286  0.286  0.286  0.286  0.286  0.286  0.286
     eigenvectors (columns):
       1.000  0.000  0.000  0.000  0.000  0.000  0.000
       0.000  1.000  0.000  0.000  0.000  0.000  0.000
       0.000  0.000  1.000  0.000  0.000  0.000  0.000
       0.000  0.000  0.000  1.000  0.000  0.000  0.000
       0.000  0.000  0.000  0.000  1.000  0.000  0.000
       0.000  0.000  0.000  0.000  0.000  1.000  0.000
[...]
     atom   42 type  2   force =    -0.00010168    0.00023147   -0.01476521
     atom   43 type  2   force =     0.00126778    0.00239987   -0.01910718
     atom   44 type  2   force =    -0.00007703   -0.00077135   -0.01779209
     atom   45 type  2   force =     0.00141756    0.00029995   -0.01674775
     atom   46 type  2   force =    -0.00011503   -0.00543651   -0.02073832
     atom   47 type  2   force =    -0.00145409   -0.00125097   -0.01746354
     atom   48 type  2   force =     0.00224744    0.00482269   -0.01731176
     atom   49 type  2   force =    -0.00209343    0.00004808   -0.01844982
     atom   50 type  2   force =    -0.00027484    0.00029285   -0.01460809
     atom   51 type  2   force =     0.00156834   -0.00055108   -0.02178453
     atom   52 type  2   force =     0.00047693    0.00014355   -0.01617421
     atom   53 type  2   force =     0.00154340   -0.00022892   -0.01700290
     atom   54 type  2   force =    -0.00068013   -0.00032483   -0.01571649
     atom   55 type  2   force =     0.00001581    0.00016444   -0.01450023
     atom   56 type  2   force =     0.00044456   -0.00010155   -0.01469751
     atom   57 type  2   force =    -0.00049214   -0.00047822   -0.01520945
     atom   58 type  2   force =    -0.00016253    0.00012124   -0.01417511
     atom   59 type  2   force =     0.00027639   -0.00038291   -0.01469691
     atom   60 type  2   force =     0.00015576   -0.00037524   -0.01470024
     atom   61 type  2   force =    -0.00010045   -0.00004933   -0.01438975
     atom   62 type  2   force =     0.00019851   -0.00031935   -0.01502802
     atom   63 type  2   force =     0.00181539   -0.00215298   -0.01889910
     atom   64 type  2   force =     0.00039381    0.00018416   -0.01498483
     atom   65 type  2   force =    -0.00017081    0.00353343   -0.01895497
     atom   66 type  2   force =    -0.00042838    0.00019977   -0.01498048
     atom   67 type  2   force =     0.00043889    0.00010313   -0.01515908
     atom   68 type  2   force =     0.00382601   -0.00041738   -0.02036552
     atom   69 type  2   force =    -0.00004891    0.00152687   -0.01574419
     atom   70 type  2   force =     0.00131091   -0.00077946   -0.01589439
     atom   71 type  2   force =    -0.00023221    0.00015623   -0.01430840
     atom   72 type  2   force =    -0.00002271    0.00020517   -0.01499427
     atom   73 type  1   force =     0.00108342   -0.00033059    0.01540471
     atom   74 type  1   force =     0.00029926   -0.00013690    0.01382417
     atom   75 type  1   force =     0.00045854    0.00015916    0.01498148
     atom   76 type  1   force =     0.00011737   -0.00046711    0.01578133
     atom   77 type  1   force =     0.00045392   -0.00049082    0.01514157
     atom   78 type  1   force =     0.00451231   -0.00225624    0.01976587
     atom   79 type  1   force =    -0.00030681   -0.00039461    0.01528156
     atom   80 type  1   force =     0.00368998   -0.00221108    0.02261370
     atom   81 type  1   force =    -0.00066086   -0.00273253    0.01711751
     atom   82 type  1   force =    -0.00015903   -0.00120222    0.01381565
     atom   83 type  1   force =    -0.00108914    0.00131309    0.02614604
     atom   84 type  1   force =     0.00098306    0.00070455    0.01440966
     atom   85 type  1   force =    -0.00054224    0.00208603    0.01615711
     atom   86 type  1   force =     0.00093612    0.00287099    0.01704264
     atom   87 type  1   force =    -0.00016425    0.00118096    0.01511986
     atom   88 type  1   force =     0.00024129    0.00082544    0.01653573
     atom   89 type  1   force =    -0.00026178   -0.00014551    0.01387780
     atom   90 type  1   force =    -0.00189865    0.00158095    0.01337767
     atom   91 type  1   force =    -0.00026068    0.00053314    0.01412995
     atom   92 type  1   force =    -0.00007189    0.00022447    0.01409207
     atom   93 type  1   force =     0.00048519   -0.00021077    0.01482827
     atom   94 type  1   force =     0.00058254    0.00014019    0.01410925
     atom   95 type  1   force =     0.00088682    0.00016301    0.01412993
     atom   96 type  1   force =     0.00008271   -0.00029994    0.01417624
     atom   97 type  1   force =     0.00069870    0.00066686    0.01441156
     atom   98 type  1   force =     0.00049612    0.00033961    0.01484070
     atom   99 type  1   force =    -0.00045469   -0.00120344    0.01577437
     atom  100 type  1   force =    -0.00034239    0.00023192    0.01440789
     atom  101 type  1   force =    -0.00048224   -0.00042122    0.01603544
     atom  102 type  1   force =    -0.00055010   -0.00035682    0.01555977
     atom  103 type  1   force =     0.00197720    0.00075601    0.01382598
     atom  104 type  1   force =     0.00019113   -0.00023689    0.01425581
     atom  105 type  1   force =     0.00019640   -0.00006652    0.01395818
     atom  106 type  1   force =    -0.00003723    0.00004097    0.01386980
     atom  107 type  1   force =     0.00022194   -0.00006012    0.01352424
     atom  108 type  1   force =     0.00018423    0.00045859    0.01377954
     atom  109 type  1   force =     0.00137200   -0.00223916    0.00431460
     atom  110 type  1   force =    -0.00044487    0.00250182    0.00498582
     atom  111 type  1   force =     0.00041625   -0.00003228    0.00127215
     atom  112 type  1   force =    -0.00066894   -0.00038270    0.00271108
     atom  113 type  1   force =     0.00044555    0.00099067    0.00595960
     atom  114 type  1   force =    -0.00015026    0.00026763    0.00344224
     atom  115 type  1   force =     0.00020140   -0.00048809    0.00127740
     atom  116 type  1   force =    -0.00106858   -0.00038951    0.00313036
     atom  117 type  1   force =     0.00155236    0.00030906    0.00250511
     atom  118 type  1   force =    -0.00105037   -0.00345180    0.00400953
     atom  119 type  1   force =     0.00029749    0.00018045    0.00179353
     atom  120 type  1   force =    -0.00072201    0.00099422    0.00430542
     atom  121 type  1   force =     0.00152105    0.00085538    0.00491362
     atom  122 type  1   force =     0.00003779   -0.00027592    0.00245801
     atom  123 type  1   force =     0.00016992    0.00005629    0.00276709
     atom  124 type  1   force =     0.00039480   -0.00083695    0.00220636
     atom  125 type  1   force =    -0.00034089   -0.00063115    0.00240833
     atom  126 type  1   force =     0.00978751    0.00531155    0.00999577
     atom  127 type  1   force =    -0.00053965    0.00078607    0.00232117
     atom  128 type  1   force =     0.00017098   -0.00076191    0.00267559
     atom  129 type  1   force =     0.00002490    0.00006330    0.00214560
     atom  130 type  1   force =    -0.01158024    0.00545797    0.01008346
     atom  131 type  1   force =     0.00093499    0.00087085    0.00247788
     atom  132 type  1   force =    -0.00008394   -0.00077382    0.00241833
     atom  133 type  1   force =     0.00037000    0.00129072    0.00440789
     atom  134 type  1   force =    -0.00049306   -0.00073927    0.00325932
     atom  135 type  1   force =     0.00055175   -0.00031577    0.00230823
     atom  136 type  1   force =    -0.00093597   -0.00003337    0.00233273
     atom  137 type  1   force =    -0.00017598    0.00031819    0.00367634
     atom  138 type  1   force =     0.00179814    0.00052150    0.00418110
     atom  139 type  1   force =    -0.00110475    0.00055584    0.00317437
     atom  140 type  1   force =    -0.00027731   -0.00039951    0.00168553
     atom  141 type  1   force =     0.00075173    0.00057842    0.00291540
     atom  142 type  1   force =    -0.00133662   -0.01161796    0.00938923
     atom  143 type  1   force =     0.00065818    0.00042655    0.00246759
     atom  144 type  1   force =    -0.00020736    0.00004486    0.00293406
     atom  145 type  2   force =    -0.00657405    0.00148855   -0.01041003
     atom  146 type  2   force =    -0.00013138   -0.00367251   -0.00672259
     atom  147 type  2   force =     0.00339824    0.00175695   -0.00354074
     atom  148 type  2   force =    -0.00101428    0.00073335   -0.00068671
     atom  149 type  2   force =    -0.00197780    0.00245094   -0.00317839
     atom  150 type  2   force =    -0.00501292   -0.00972178   -0.01179690
     atom  151 type  2   force =     0.00125450    0.00192206   -0.00280116
     atom  152 type  2   force =     0.00007244   -0.00091051   -0.00212521
     atom  153 type  2   force =     0.00037980    0.00774727   -0.00448049
     atom  154 type  2   force =     0.00636451   -0.00890063   -0.01530400
     atom  155 type  2   force =    -0.00199440   -0.00058044   -0.00260484
     atom  156 type  2   force =     0.00028830   -0.00044664   -0.00152550
     atom  157 type  2   force =    -0.00644444   -0.00203300   -0.01322936
     atom  158 type  2   force =     0.00003169   -0.00009621   -0.00260405
     atom  159 type  2   force =     0.00346680   -0.00024333   -0.00308808
     atom  160 type  2   force =    -0.00005652    0.00092159   -0.00101225
     atom  161 type  2   force =    -0.00422007   -0.00316198   -0.00618878
     atom  162 type  2   force =     0.00099493    0.00240739   -0.00207438
     atom  163 type  2   force =    -0.00079207    0.00083596   -0.00201039
     atom  164 type  2   force =     0.00479527   -0.00198306   -0.00462323
     atom  165 type  2   force =     0.00021942   -0.00123161   -0.00291422
     atom  166 type  2   force =    -0.00555490   -0.00160239   -0.00560339
     atom  167 type  2   force =     0.00977811    0.00059908   -0.00876445
     atom  168 type  2   force =    -0.00031853    0.00095757   -0.00160554
     atom  169 type  2   force =    -0.00130533   -0.00041640   -0.00187073
     atom  170 type  2   force =     0.00388261    0.00749407   -0.01052754
     atom  171 type  2   force =    -0.00122197   -0.00064996   -0.00156158
     atom  172 type  2   force =     0.00235199   -0.00269188   -0.00454333
     atom  173 type  2   force =    -0.00043699   -0.00043203   -0.00183799
     atom  174 type  2   force =    -0.00282778    0.00386465   -0.02743218
     atom  175 type  2   force =    -0.00164450   -0.00108017   -0.00216550
     atom  176 type  2   force =     0.00083609    0.00165983   -0.00274789
     atom  177 type  2   force =    -0.00095292   -0.00257188   -0.00463836
     atom  178 type  2   force =     0.00363052    0.00799222   -0.00537371
     atom  179 type  2   force =    -0.00263726   -0.00054135   -0.00322108
     atom  180 type  2   force =     0.00084214    0.00057830   -0.00216170
     atom  181 type  1   force =     0.00166571    0.00195102    0.00429461
     atom  182 type  1   force =    -0.00021492   -0.00056229    0.00123169
     atom  183 type  1   force =     0.00084023   -0.00001783    0.00133887
     atom  184 type  1   force =    -0.00182344    0.00086331    0.00125457
     atom  185 type  1   force =     0.00219636    0.00034619    0.00378796
     atom  186 type  1   force =    -0.00016385    0.00152949    0.00232319
     atom  187 type  1   force =    -0.00232365   -0.00115567    0.00188527
     atom  188 type  1   force =     0.00040624   -0.00081521    0.00090145
     atom  189 type  1   force =    -0.00004591   -0.00133812    0.00143841
     atom  190 type  1   force =     0.00271125    0.00082494    0.00249521
     atom  191 type  1   force =    -0.00001061    0.00034249    0.00101825
     atom  192 type  1   force =    -0.00136475    0.00093533    0.00207216
     atom  193 type  1   force =    -0.00108853   -0.00158093    0.00434975
     atom  194 type  1   force =    -0.00011052    0.00237691    0.00530130
     atom  195 type  1   force =     0.00093185   -0.00022358    0.00154112
     atom  196 type  1   force =    -0.00096259   -0.00020649    0.00108574
     atom  197 type  1   force =     0.00028402   -0.00176163    0.00192361
     atom  198 type  1   force =    -0.00069261    0.00834043    0.00939435
     atom  199 type  1   force =     0.00054110    0.00058496    0.00199010
     atom  200 type  1   force =    -0.00054254   -0.00016735    0.00116097
     atom  201 type  1   force =    -0.00006512    0.00226004    0.00210165
     atom  202 type  1   force =     0.00359053   -0.00192448    0.00274255
     atom  203 type  1   force =    -0.00154940   -0.00144069    0.00107642
     atom  204 type  1   force =    -0.00034595   -0.00049092    0.00142356
     atom  205 type  1   force =     0.00892020   -0.00705884   -0.00127770
     atom  206 type  1   force =    -0.00000704    0.00008319    0.00103644
     atom  207 type  1   force =    -0.00037643   -0.00018241    0.00108066
     atom  208 type  1   force =    -0.00013678    0.00025888    0.00182912
     atom  209 type  1   force =     0.00127819    0.00189454    0.00274296
     atom  210 type  1   force =    -0.00237475   -0.00302875    0.00068680
     atom  211 type  1   force =     0.00088523   -0.00010988    0.00111458
     atom  212 type  1   force =    -0.00212794    0.00051805    0.00109066
     atom  213 type  1   force =     0.00031645    0.00125834    0.00194469
     atom  214 type  1   force =    -0.00883273   -0.00593051    0.00640353
     atom  215 type  1   force =     0.00224109    0.00040433    0.00183487
     atom  216 type  1   force =    -0.00022200   -0.00070261    0.00148447
     atom  217 type  3   force =     0.00826358    0.00195123    0.00026130
     atom  218 type  4   force =    -0.00656183    0.00321803    0.00324884
     atom  219 type  5   force =    -0.00306199    0.00143658    0.00250798
     atom  220 type  4   force =     0.00228448   -0.00522705    0.00537874
     atom  221 type  5   force =    -0.00135991    0.00569298    0.00257228
     atom  222 type  5   force =     0.01635332    0.00401944   -0.00649336
     atom  223 type  1   force =    -0.01613845   -0.00659089    0.01048814
     atom  224 type  4   force =     0.00478257   -0.00668196    0.00490949
     atom  225 type  5   force =    -0.00368963    0.00137307    0.00072534
     atom  226 type  4   force =    -0.00117981   -0.00545203    0.00641999
     atom  227 type  4   force =     0.00603319    0.00166463    0.00364504
     atom  228 type  5   force =    -0.00399146   -0.00678425   -0.00004485
     atom  229 type  3   force =     0.00224330   -0.00420811    0.00255107
     atom  230 type  3   force =    -0.00820764    0.00451524    0.00017392
     atom  231 type  3   force =     0.00489406    0.00424023   -0.00268692
     atom  232 type  3   force =    -0.00836083    0.00433309   -0.00161894
     atom  233 type  3   force =     0.00004196    0.00973643   -0.00435566
     atom  234 type  4   force =     0.00376180   -0.00223046    0.00275545
     atom  235 type  5   force =    -0.02033145   -0.01467767   -0.01084009
     atom  236 type  1   force =     0.00847037    0.00637381    0.00313845
     atom  237 type  4   force =     0.00328450    0.00082381    0.00785289
     atom  238 type  5   force =    -0.00649439    0.01246065   -0.00545932
     atom  239 type  4   force =    -0.00518396    0.00681349    0.00309739
     atom  240 type  5   force =     0.01450848   -0.00562863    0.00427607
     atom  241 type  5   force =     0.00487353   -0.00325081   -0.00041056
     atom  242 type  3   force =    -0.00315158    0.00285678   -0.00069570
     atom  243 type  3   force =    -0.00848381   -0.00332547    0.00220102
     atom  244 type  3   force =     0.00886473   -0.00623529   -0.00145500
     atom  245 type  3   force =    -0.00248445    0.00188834   -0.00623305
     atom  246 type  4   force =    -0.00319121   -0.02783125    0.05094605
     atom  247 type  5   force =     0.00620469    0.04670368   -0.06574368
     atom  248 type  4   force =     0.01384584    0.01816327    0.01600609
     atom  249 type  5   force =    -0.00960272   -0.00883827   -0.00938531
     atom  250 type  4   force =    -0.02142027    0.01327916    0.00923697
     atom  251 type  5   force =     0.01389902   -0.00803616   -0.00804486
     atom  252 type  6   force =     0.00453111   -0.02468691    0.00371243
     atom  253 type  5   force =    -0.01144279    0.01402535   -0.00342362
     atom  254 type  4   force =     0.00933210   -0.01211484    0.00717609
     atom  255 type  5   force =     0.01124788    0.02877302    0.00255656
     atom  256 type  4   force =    -0.01482062   -0.02823904   -0.00036237
     atom  257 type  5   force =    -0.00499158   -0.01513942    0.04009289
     atom  258 type  4   force =     0.00120219    0.00370011   -0.01137277

     Total force =     0.159354     Total SCF correction =     0.000132


     Computing stress (Cartesian axis) and pressure


     negative rho (up, down):  3.945E-02 9.717E-02
          total   stress  (Ry/bohr**3)                   (kbar)     P=      -17.91
  -0.00016751   0.00000102  -0.00000241          -24.64        0.15       -0.35
   0.00000102  -0.00016822  -0.00000077            0.15      -24.75       -0.11
  -0.00000241  -0.00000077  -0.00002948           -0.35       -0.11       -4.34


     Writing all to output data dir ./out/aiida.save/
 
     init_run     :     45.30s CPU     46.70s WALL (       1 calls)
     electrons    :  11721.56s CPU  11946.48s WALL (       1 calls)
     forces       :     89.21s CPU     90.14s WALL (       1 calls)
     stress       :    526.56s CPU    527.92s WALL (       1 calls)

     Called by init_run:
     wfcinit      :     38.80s CPU     39.82s WALL (       1 calls)
     potinit      :      2.07s CPU      2.12s WALL (       1 calls)
     hinit0       :      1.06s CPU      1.12s WALL (       1 calls)

     Called by electrons:
     c_bands      :   9735.87s CPU   9877.59s WALL (     134 calls)
     sum_band     :   1620.49s CPU   1672.76s WALL (     134 calls)
     v_of_rho     :     58.10s CPU     59.03s WALL (     135 calls)
     newd         :     83.17s CPU    111.35s WALL (     135 calls)
     PAW_pot      :    175.20s CPU    176.42s WALL (     135 calls)
     mix_rho      :     37.53s CPU     37.73s WALL (     134 calls)

     Called by c_bands:
     init_us_2    :     17.02s CPU     17.09s WALL (     548 calls)
     init_us_2:cp :     17.01s CPU     17.08s WALL (     548 calls)
     regterg      :   9642.72s CPU   9761.94s WALL (     268 calls)

     Called by *egterg:
     rdiaghg      :    639.35s CPU    644.85s WALL (     827 calls)
     h_psi        :   5819.05s CPU   5873.65s WALL (     829 calls)
     s_psi        :    516.80s CPU    544.50s WALL (     835 calls)
     g_psi        :      5.39s CPU      5.40s WALL (     559 calls)

     Called by h_psi:
     h_psi:calbec :    695.41s CPU    696.28s WALL (     829 calls)
     vloc_psi     :   3705.92s CPU   3723.81s WALL (     829 calls)
     add_vuspsi   :    514.15s CPU    545.63s WALL (     829 calls)
     vhpsi        :    889.69s CPU    894.02s WALL (     829 calls)

     General routines
     calbec       :   1458.20s CPU   1460.43s WALL (   27000 calls)
     fft          :     82.07s CPU     83.22s WALL (    2862 calls)
     ffts         :      4.54s CPU      4.71s WALL (     538 calls)
     fftw         :   4004.24s CPU   4024.64s WALL ( 1711214 calls)
     interpolate  :      9.70s CPU      9.89s WALL (     270 calls)
     davcio       :      0.00s CPU      0.01s WALL (       2 calls)
 
     Parallel routines
     fft_scatt_xy :    128.74s CPU    129.31s WALL ( 1714614 calls)
     fft_scatt_yz :   3425.78s CPU   3445.55s WALL ( 1714614 calls)

     Hubbard U routines
     new_ns       :     62.36s CPU     63.52s WALL (     134 calls)
     vhpsi        :    889.69s CPU    894.02s WALL (     829 calls)
     force_hub    :     75.13s CPU     75.54s WALL (       1 calls)
     stres_hub    :    196.24s CPU    197.10s WALL (       1 calls)
 
     PWSCF        :      3h27m CPU      3h31m WALL

 
   This run was terminated on:  17:50:16  18Dec2024            

=------------------------------------------------------------------------------=
   JOB DONE.
=------------------------------------------------------------------------------=
