
     Program PWSCF v.6.8 starts on  2Apr2025 at 17:20:35 

     This program is part of the open-source Quantum ESPRESSO suite
     for quantum simulation of materials; please cite
         "P. Giannozzi et al., J. Phys.:Condens. Matter 21 395502 (2009);
         "P. Giannozzi et al., J. Phys.:Condens. Matter 29 465901 (2017);
         "P. Giannozzi et al., J. Chem. Phys. 152 154105 (2020);
          URL http://www.quantum-espresso.org", 
     in publications or presentations arising from this work. More details at
     http://www.quantum-espresso.org/quote

     Parallel version (MPI), running on    64 processors

     MPI processes distributed on     2 nodes
     R & G space division:  proc/nbgrp/npool/nimage =      64
     377747 MiB available memory on the printing compute node when the environment starts
 
     Reading input from pwscf.in

     Current dimensions of program PWSCF are:
     Max number of different atomic species (ntypx) = 10
     Max number of k-points (npk) =  40000
     Max angular momentum in pseudopotentials (lmaxx) =  4
     file C.pbe-n-kjpaw_psl.1.0.0.UPF: wavefunction(s)  2S 2P renormalized
     file Fe.pbe-spn-kjpaw_psl.0.2.1.UPF: wavefunction(s)  3D renormalized

     gamma-point specific algorithms are used

     Subspace diagonalization in iterative solution of the eigenvalue problem:
     one sub-group per band group will be used
     scalapack distributed-memory algorithm (size of sub-group:  8*  8 procs)

 
     Parallelization info
     --------------------
     sticks:   dense  smooth     PW     G-vecs:    dense   smooth      PW
     Min         660     330     81               142472    50370    6294
     Max         662     332     84               142498    50392    6308
     Sum       42361   21205   5305              9119279  3224425  403087
 
     Using Slab Decomposition
 


     bravais-lattice index     =            0
     lattice parameter (alat)  =      43.8349  a.u.
     unit-cell volume          =   94338.8593 (a.u.)^3
     number of atoms/cell      =           13
     number of atomic types    =            3
     number of electrons       =        70.00
     number of Kohn-Sham states=          200
     kinetic-energy cutoff     =      40.0000  Ry
     charge density cutoff     =     320.0000  Ry
     scf convergence threshold =      4.2E-08
     mixing beta               =       0.1000
     number of iterations used =            8  plain     mixing
     Exchange-correlation= SLA  PW   PBX  PBC
                           (   1   4   3   4   0   0   0)

     celldm(1)=  43.834893  celldm(2)=   0.000000  celldm(3)=   0.000000
     celldm(4)=   0.000000  celldm(5)=   0.000000  celldm(6)=   0.000000

     crystal axes: (cart. coord. in units of alat)
               a(1) = (   1.000000   0.000000   0.000000 )  
               a(2) = (  -0.500000   0.866025   0.000000 )  
               a(3) = (   0.000000   0.000000   1.293303 )  

     reciprocal axes: (cart. coord. in units 2 pi/alat)
               b(1) = (  1.000000  0.577350  0.000000 )  
               b(2) = (  0.000000  1.154701  0.000000 )  
               b(3) = (  0.000000  0.000000  0.773214 )  


     PseudoPot. # 1 for N  read from file:
     ./pseudo/N.pbe-n-radius_5.UPF
     MD5 check sum: 16739722b17309cd8fe442a2ace49922
     Pseudo is Ultrasoft + core correction, Zval =  5.0
     Generated using "atomic" code by A. Dal Corso  v.5.1
     Using radial grid of 1085 points,  4 beta functions with: 
                l(1) =   0
                l(2) =   0
                l(3) =   1
                l(4) =   1
     Q(r) pseudized with 0 coefficients 


     PseudoPot. # 2 for C  read from file:
     ./pseudo/C.pbe-n-kjpaw_psl.1.0.0.UPF
     MD5 check sum: 5d2aebdfa2cae82b50a7e79e9516da0f
     Pseudo is Projector augmented-wave + core cor, Zval =  4.0
     Generated using "atomic" code by A. Dal Corso  v.5.1
     Shape of augmentation charge: PSQ
     Using radial grid of 1073 points,  4 beta functions with: 
                l(1) =   0
                l(2) =   0
                l(3) =   1
                l(4) =   1
     Q(r) pseudized with 0 coefficients 


     PseudoPot. # 3 for Fe read from file:
     ./pseudo/Fe.pbe-spn-kjpaw_psl.0.2.1.UPF
     MD5 check sum: e86618425769142926afa95317d90200
     Pseudo is Projector augmented-wave + core cor, Zval = 16.0
     Generated using "atomic" code by A. Dal Corso  v.5.0.99 svn rev. 10869
     Shape of augmentation charge: PSQ
     Using radial grid of 1191 points,  6 beta functions with: 
                l(1) =   0
                l(2) =   0
                l(3) =   1
                l(4) =   1
                l(5) =   2
                l(6) =   2
     Q(r) pseudized with 0 coefficients 


     atomic species   valence    mass     pseudopotential
        N              5.00    14.00670     N ( 1.00)
        C              4.00    12.01070     C ( 1.00)
        Fe            16.00    55.84500     Fe( 1.00)

     Starting magnetic structure 
     atomic species   magnetization
        N            0.100
        C            0.417
        Fe           0.000


     Simplified LDA+U calculation (l_max = 2) with parameters (eV):
     atomic species    L          U    alpha       J0     beta
        Fe             2     6.0000   0.0000   0.0000   0.0000



     No symmetry found



   Cartesian axes

     site n.     atom                  positions (alat units)
         1           N   tau(   1) = (   0.3406678   0.3813109   0.5416370  )
         2           C   tau(   2) = (   0.3328086   0.3607992   0.5874099  )
         3           N   tau(   3) = (   0.2473755   0.2306846   0.6214590  )
         4           C   tau(   4) = (   0.2761870   0.2701852   0.6351158  )
         5           N   tau(   5) = (   0.4398034   0.2585503   0.6598826  )
         6           C   tau(   6) = (   0.3974774   0.2861834   0.6632661  )
         7           Fe  tau(   7) = (   0.3235638   0.3361160   0.6731392  )
         8           C   tau(   8) = (   0.2497130   0.3859133   0.6835371  )
         9           N   tau(   9) = (   0.2075843   0.4138431   0.6866821  )
        10           C   tau(  10) = (   0.3709536   0.4017632   0.7117707  )
        11           N   tau(  11) = (   0.3994724   0.4416079   0.7250896  )
        12           C   tau(  12) = (   0.3143808   0.3117169   0.7589376  )
        13           N   tau(  13) = (   0.3060502   0.2907658   0.8044233  )

     number of k points=     1  Methfessel-Paxton smearing, width (Ry)=  0.0200
                       cart. coord. in units 2pi/alat
        k(    1) = (   0.0000000   0.0000000   0.0000000), wk =   1.0000000

     Dense  grid:  4559640 G-vectors     FFT dimensions: ( 250, 250, 324)

     Smooth grid:  1612213 G-vectors     FFT dimensions: ( 180, 180, 240)

     Estimated max dynamical RAM per process >     355.46 MB

     Estimated total dynamical RAM >      22.22 GB

     Check: negative core charge=   -0.000003
     Generating pointlists ...
     new r_m :   0.0209 (alat units)  0.9157 (a.u.) for type    1
     new r_m :   0.0209 (alat units)  0.9157 (a.u.) for type    2
     new r_m :   0.0370 (alat units)  1.6211 (a.u.) for type    3

     Initial potential from superposition of free atoms

     starting charge   69.99927, renormalised to   70.00000

     negative rho (up, down):  1.623E-02 1.640E-02
     Number of +U iterations with fixed ns =  0
     Starting occupations:
 --- enter write_ns ---
 LDA+U parameters:
U( 3)     =  6.00000000
atom    7   Tr[ns(na)] (up, down, total) =   3.00000  3.00000  6.00000
   spin  1
    eigenvalues: 
  0.600  0.600  0.600  0.600  0.600
    eigenvectors:
  1.000  0.000  0.000  0.000  0.000
  0.000  1.000  0.000  0.000  0.000
  0.000  0.000  1.000  0.000  0.000
  0.000  0.000  0.000  1.000  0.000
  0.000  0.000  0.000  0.000  1.000
    occupations:
  0.600  0.000  0.000  0.000  0.000
  0.000  0.600  0.000  0.000  0.000
  0.000  0.000  0.600  0.000  0.000
  0.000  0.000  0.000  0.600  0.000
  0.000  0.000  0.000  0.000  0.600
   spin  2
    eigenvalues: 
  0.600  0.600  0.600  0.600  0.600
    eigenvectors:
  1.000  0.000  0.000  0.000  0.000
  0.000  1.000  0.000  0.000  0.000
  0.000  0.000  1.000  0.000  0.000
  0.000  0.000  0.000  1.000  0.000
  0.000  0.000  0.000  0.000  1.000
    occupations:
  0.600  0.000  0.000  0.000  0.000
  0.000  0.600  0.000  0.000  0.000
  0.000  0.000  0.600  0.000  0.000
  0.000  0.000  0.000  0.600  0.000
  0.000  0.000  0.000  0.000  0.600
atomic mag. moment =   0.00000
N of occupied +U levels =    6.000000
 --- exit write_ns ---
 Atomic wfc used for LDA+U Projector are NOT orthogonalized
     Starting wfcs are   61 randomized atomic wfcs +  139 random wfcs
     Checking if some PAW data can be deallocated... 

     total cpu time spent up to now is        9.0 secs

     Self-consistent Calculation

     iteration #  1     ecut=    40.00 Ry     beta= 0.10
     Davidson diagonalization with overlap
     ethr =  1.00E-02,  avg # of iterations = 13.0
 --- enter write_ns ---
 LDA+U parameters:
U( 3)     =  6.00000000
atom    7   Tr[ns(na)] (up, down, total) =   2.83775  1.69596  4.53371
   spin  1
    eigenvalues: 
  0.482  0.489  0.527  0.561  0.779
    eigenvectors:
  0.319  0.411  0.093  0.144  0.033
  0.047  0.113  0.003  0.379  0.459
  0.000  0.342  0.202  0.125  0.331
  0.078  0.010  0.693  0.051  0.168
  0.556  0.124  0.009  0.301  0.009
    occupations:
  0.510  0.020 -0.045 -0.017 -0.022
  0.020  0.649 -0.098 -0.069  0.007
 -0.045 -0.098  0.602  0.060  0.028
 -0.017 -0.069  0.060  0.567  0.025
 -0.022  0.007  0.028  0.025  0.509
   spin  2
    eigenvalues: 
  0.110  0.121  0.200  0.627  0.638
    eigenvectors:
  0.056  0.198  0.035  0.287  0.424
  0.027  0.368  0.455  0.041  0.108
  0.134  0.190  0.337  0.000  0.338
  0.733  0.004  0.163  0.090  0.009
  0.050  0.239  0.009  0.582  0.120
    occupations:
  0.488  0.065  0.193 -0.057  0.088
  0.065  0.233  0.067  0.024 -0.143
  0.193  0.067  0.321  0.048 -0.092
 -0.057  0.024  0.048  0.176 -0.132
  0.088 -0.143 -0.092 -0.132  0.478
atomic mag. moment =   1.14179
N of occupied +U levels =    4.533712
 --- exit write_ns ---

     negative rho (up, down):  1.807E-02 1.905E-02

     total cpu time spent up to now is       24.5 secs

     total energy              =    -558.63872532 Ry
     estimated scf accuracy    <       7.61321891 Ry

     total magnetization       =     1.82 Bohr mag/cell
     absolute magnetization    =     3.39 Bohr mag/cell

     iteration #  2     ecut=    40.00 Ry     beta= 0.10
     Davidson diagonalization with overlap
     ethr =  1.00E-02,  avg # of iterations =  1.0

     negative rho (up, down):  3.093E-02 2.266E-02

     total cpu time spent up to now is       30.1 secs

     total energy              =    -559.09144846 Ry
     estimated scf accuracy    <       3.20434822 Ry

     total magnetization       =     4.00 Bohr mag/cell
     absolute magnetization    =     4.57 Bohr mag/cell

     iteration #  3     ecut=    40.00 Ry     beta= 0.10
     Davidson diagonalization with overlap
     ethr =  4.58E-03,  avg # of iterations =  1.0

     negative rho (up, down):  3.680E-02 3.057E-02

     total cpu time spent up to now is       35.7 secs

     total energy              =    -559.24821614 Ry
     estimated scf accuracy    <       1.37249812 Ry

     total magnetization       =     4.00 Bohr mag/cell
     absolute magnetization    =     5.24 Bohr mag/cell

     iteration #  4     ecut=    40.00 Ry     beta= 0.10
     Davidson diagonalization with overlap
     ethr =  1.96E-03,  avg # of iterations =  1.0

     negative rho (up, down):  1.183E-01 1.340E-01

     total cpu time spent up to now is       41.2 secs

     total energy              =    -559.32421706 Ry
     estimated scf accuracy    <       0.63959459 Ry

     total magnetization       =     4.00 Bohr mag/cell
     absolute magnetization    =     4.98 Bohr mag/cell

     iteration #  5     ecut=    40.00 Ry     beta= 0.10
     Davidson diagonalization with overlap
     ethr =  9.14E-04,  avg # of iterations =  1.5

     negative rho (up, down):  2.407E-01 2.924E-01

     total cpu time spent up to now is       47.0 secs

     total energy              =    -559.42258963 Ry
     estimated scf accuracy    <       0.25714514 Ry

     total magnetization       =     4.00 Bohr mag/cell
     absolute magnetization    =     4.87 Bohr mag/cell

     iteration #  6     ecut=    40.00 Ry     beta= 0.10
     Davidson diagonalization with overlap
     ethr =  3.67E-04,  avg # of iterations = 10.0

     negative rho (up, down):  2.429E-01 3.066E-01

     total cpu time spent up to now is       56.0 secs

     total energy              =    -559.47748026 Ry
     estimated scf accuracy    <       0.09453782 Ry

     total magnetization       =     4.03 Bohr mag/cell
     absolute magnetization    =     4.85 Bohr mag/cell

     iteration #  7     ecut=    40.00 Ry     beta= 0.10
     Davidson diagonalization with overlap
     ethr =  1.35E-04,  avg # of iterations =  2.0

     negative rho (up, down):  2.483E-01 4.153E-01

     total cpu time spent up to now is       61.9 secs

     total energy              =    -559.51726116 Ry
     estimated scf accuracy    <       0.08920589 Ry

     total magnetization       =     4.07 Bohr mag/cell
     absolute magnetization    =     4.86 Bohr mag/cell

     iteration #  8     ecut=    40.00 Ry     beta= 0.10
     Davidson diagonalization with overlap
     ethr =  1.27E-04,  avg # of iterations =  1.5

     negative rho (up, down):  2.193E-01 3.926E-01

     total cpu time spent up to now is       67.6 secs

     total energy              =    -559.53585767 Ry
     estimated scf accuracy    <       0.04156238 Ry

     total magnetization       =     4.17 Bohr mag/cell
     absolute magnetization    =     4.89 Bohr mag/cell

     iteration #  9     ecut=    40.00 Ry     beta= 0.10
     Davidson diagonalization with overlap
     ethr =  5.94E-05,  avg # of iterations =  3.5

     negative rho (up, down):  1.847E-01 3.797E-01

     total cpu time spent up to now is       73.6 secs

     total energy              =    -559.54531297 Ry
     estimated scf accuracy    <       0.03026475 Ry

     total magnetization       =     4.17 Bohr mag/cell
     absolute magnetization    =     4.88 Bohr mag/cell

     iteration # 10     ecut=    40.00 Ry     beta= 0.10
     Davidson diagonalization with overlap
     ethr =  4.32E-05,  avg # of iterations = 12.0

     negative rho (up, down):  1.211E-01 3.669E-01

     total cpu time spent up to now is       80.2 secs

     total energy              =    -559.55309233 Ry
     estimated scf accuracy    <       0.01187208 Ry

     total magnetization       =     4.15 Bohr mag/cell
     absolute magnetization    =     4.87 Bohr mag/cell

     iteration # 11     ecut=    40.00 Ry     beta= 0.10
     Davidson diagonalization with overlap
     ethr =  1.70E-05,  avg # of iterations = 12.0
     Minimization algorithm failed to find Fermi energy: reverting to bisection
     Possible cause: smearing is larger than the electronic band-gap.

     negative rho (up, down):  1.164E-01 3.472E-01

     total cpu time spent up to now is       87.7 secs

     total energy              =    -559.56058389 Ry
     estimated scf accuracy    <       0.00300064 Ry

     total magnetization       =     4.20 Bohr mag/cell
     absolute magnetization    =     4.98 Bohr mag/cell

     iteration # 12     ecut=    40.00 Ry     beta= 0.10
     Davidson diagonalization with overlap
     ethr =  4.29E-06,  avg # of iterations = 15.0

     negative rho (up, down):  1.093E-01 3.116E-01

     total cpu time spent up to now is       97.1 secs

     total energy              =    -559.56352602 Ry
     estimated scf accuracy    <       0.00083904 Ry

     total magnetization       =     4.15 Bohr mag/cell
     absolute magnetization    =     4.96 Bohr mag/cell

     iteration # 13     ecut=    40.00 Ry     beta= 0.10
     Davidson diagonalization with overlap
     c_bands:  5 eigenvalues not converged
     ethr =  1.20E-06,  avg # of iterations = 11.0

     negative rho (up, down):  1.042E-01 2.872E-01

     total cpu time spent up to now is      104.0 secs

     total energy              =    -559.56600134 Ry
     estimated scf accuracy    <       0.00016994 Ry

     total magnetization       =     4.15 Bohr mag/cell
     absolute magnetization    =     4.94 Bohr mag/cell

     iteration # 14     ecut=    40.00 Ry     beta= 0.10
     Davidson diagonalization with overlap
     ethr =  2.43E-07,  avg # of iterations =  5.5
     Minimization algorithm failed to find Fermi energy: reverting to bisection
     Possible cause: smearing is larger than the electronic band-gap.

     negative rho (up, down):  9.893E-02 2.606E-01

     total cpu time spent up to now is      110.4 secs

     total energy              =    -559.56822139 Ry
     estimated scf accuracy    <       0.00013689 Ry

     total magnetization       =     4.11 Bohr mag/cell
     absolute magnetization    =     4.95 Bohr mag/cell

     iteration # 15     ecut=    40.00 Ry     beta= 0.10
     Davidson diagonalization with overlap
     ethr =  1.96E-07,  avg # of iterations =  2.0
     Minimization algorithm failed to find Fermi energy: reverting to bisection
     Possible cause: smearing is larger than the electronic band-gap.

     negative rho (up, down):  9.513E-02 2.404E-01

     total cpu time spent up to now is      116.4 secs

     total energy              =    -559.56973524 Ry
     estimated scf accuracy    <       0.00002795 Ry

     total magnetization       =     4.10 Bohr mag/cell
     absolute magnetization    =     4.94 Bohr mag/cell

     iteration # 16     ecut=    40.00 Ry     beta= 0.10
     Davidson diagonalization with overlap
     ethr =  3.99E-08,  avg # of iterations =  2.0
     Minimization algorithm failed to find Fermi energy: reverting to bisection
     Possible cause: smearing is larger than the electronic band-gap.

     negative rho (up, down):  9.224E-02 2.248E-01

     total cpu time spent up to now is      122.4 secs

     total energy              =    -559.57087368 Ry
     estimated scf accuracy    <       0.00001134 Ry

     total magnetization       =     4.09 Bohr mag/cell
     absolute magnetization    =     4.93 Bohr mag/cell

     iteration # 17     ecut=    40.00 Ry     beta= 0.10
     Davidson diagonalization with overlap
     ethr =  1.62E-08,  avg # of iterations =  2.0
     Minimization algorithm failed to find Fermi energy: reverting to bisection
     Possible cause: smearing is larger than the electronic band-gap.

     negative rho (up, down):  8.992E-02 2.124E-01

     total cpu time spent up to now is      128.5 secs

     total energy              =    -559.57178277 Ry
     estimated scf accuracy    <       0.00000708 Ry

     total magnetization       =     4.09 Bohr mag/cell
     absolute magnetization    =     4.92 Bohr mag/cell

     iteration # 18     ecut=    40.00 Ry     beta= 0.10
     Davidson diagonalization with overlap
     ethr =  1.01E-08,  avg # of iterations =  2.0
     Minimization algorithm failed to find Fermi energy: reverting to bisection
     Possible cause: smearing is larger than the electronic band-gap.

     negative rho (up, down):  8.799E-02 2.024E-01

     total cpu time spent up to now is      134.6 secs

     total energy              =    -559.57251343 Ry
     estimated scf accuracy    <       0.00000522 Ry

     total magnetization       =     4.08 Bohr mag/cell
     absolute magnetization    =     4.92 Bohr mag/cell

     iteration # 19     ecut=    40.00 Ry     beta= 0.10
     Davidson diagonalization with overlap
     ethr =  7.46E-09,  avg # of iterations =  2.0
     Minimization algorithm failed to find Fermi energy: reverting to bisection
     Possible cause: smearing is larger than the electronic band-gap.

     negative rho (up, down):  8.647E-02 1.940E-01

     total cpu time spent up to now is      140.8 secs

     total energy              =    -559.57311850 Ry
     estimated scf accuracy    <       0.00000299 Ry

     total magnetization       =     4.06 Bohr mag/cell
     absolute magnetization    =     4.90 Bohr mag/cell

     iteration # 20     ecut=    40.00 Ry     beta= 0.10
     Davidson diagonalization with overlap
     ethr =  4.27E-09,  avg # of iterations =  2.5

     negative rho (up, down):  8.520E-02 1.881E-01

     total cpu time spent up to now is      147.1 secs

     total energy              =    -559.57355779 Ry
     estimated scf accuracy    <       0.00000200 Ry

     total magnetization       =     4.05 Bohr mag/cell
     absolute magnetization    =     4.89 Bohr mag/cell

     iteration # 21     ecut=    40.00 Ry     beta= 0.10
     Davidson diagonalization with overlap
     ethr =  2.86E-09,  avg # of iterations =  3.5

     negative rho (up, down):  8.419E-02 1.840E-01

     total cpu time spent up to now is      153.3 secs

     total energy              =    -559.57388000 Ry
     estimated scf accuracy    <       0.00000181 Ry

     total magnetization       =     4.04 Bohr mag/cell
     absolute magnetization    =     4.89 Bohr mag/cell

     iteration # 22     ecut=    40.00 Ry     beta= 0.10
     Davidson diagonalization with overlap
     ethr =  2.58E-09,  avg # of iterations =  2.0

     negative rho (up, down):  8.338E-02 1.805E-01

     total cpu time spent up to now is      159.4 secs

     total energy              =    -559.57416742 Ry
     estimated scf accuracy    <       0.00000123 Ry

     total magnetization       =     4.04 Bohr mag/cell
     absolute magnetization    =     4.88 Bohr mag/cell

     iteration # 23     ecut=    40.00 Ry     beta= 0.10
     Davidson diagonalization with overlap
     ethr =  1.76E-09,  avg # of iterations =  2.0
     Minimization algorithm failed to find Fermi energy: reverting to bisection
     Possible cause: smearing is larger than the electronic band-gap.

     negative rho (up, down):  8.272E-02 1.778E-01

     total cpu time spent up to now is      165.6 secs

     total energy              =    -559.57440587 Ry
     estimated scf accuracy    <       0.00000086 Ry

     total magnetization       =     4.02 Bohr mag/cell
     absolute magnetization    =     4.87 Bohr mag/cell

     iteration # 24     ecut=    40.00 Ry     beta= 0.10
     Davidson diagonalization with overlap
     ethr =  1.23E-09,  avg # of iterations =  2.5
     Minimization algorithm failed to find Fermi energy: reverting to bisection
     Possible cause: smearing is larger than the electronic band-gap.

     negative rho (up, down):  8.221E-02 1.760E-01

     total cpu time spent up to now is      171.8 secs

     total energy              =    -559.57460539 Ry
     estimated scf accuracy    <       0.00000062 Ry

     total magnetization       =     4.01 Bohr mag/cell
     absolute magnetization    =     4.86 Bohr mag/cell

     iteration # 25     ecut=    40.00 Ry     beta= 0.10
     Davidson diagonalization with overlap
     ethr =  8.82E-10,  avg # of iterations =  2.5
     Minimization algorithm failed to find Fermi energy: reverting to bisection
     Possible cause: smearing is larger than the electronic band-gap.

     negative rho (up, down):  8.178E-02 1.745E-01

     total cpu time spent up to now is      178.0 secs

     total energy              =    -559.57478389 Ry
     estimated scf accuracy    <       0.00000041 Ry

     total magnetization       =     4.00 Bohr mag/cell
     absolute magnetization    =     4.85 Bohr mag/cell

     iteration # 26     ecut=    40.00 Ry     beta= 0.10
     Davidson diagonalization with overlap
     ethr =  5.88E-10,  avg # of iterations =  3.0

     negative rho (up, down):  8.145E-02 1.735E-01

     total cpu time spent up to now is      184.2 secs

     total energy              =    -559.57492823 Ry
     estimated scf accuracy    <       0.00000025 Ry

     total magnetization       =     3.99 Bohr mag/cell
     absolute magnetization    =     4.84 Bohr mag/cell

     iteration # 27     ecut=    40.00 Ry     beta= 0.10
     Davidson diagonalization with overlap
     ethr =  3.60E-10,  avg # of iterations =  2.0
     Minimization algorithm failed to find Fermi energy: reverting to bisection
     Possible cause: smearing is larger than the electronic band-gap.

     negative rho (up, down):  8.119E-02 1.730E-01

     total cpu time spent up to now is      190.4 secs

     total energy              =    -559.57503845 Ry
     estimated scf accuracy    <       0.00000022 Ry

     total magnetization       =     3.99 Bohr mag/cell
     absolute magnetization    =     4.84 Bohr mag/cell

     iteration # 28     ecut=    40.00 Ry     beta= 0.10
     Davidson diagonalization with overlap
     ethr =  3.08E-10,  avg # of iterations =  3.0

     negative rho (up, down):  8.099E-02 1.725E-01

     total cpu time spent up to now is      196.6 secs

     total energy              =    -559.57513152 Ry
     estimated scf accuracy    <       0.00000017 Ry

     total magnetization       =     3.98 Bohr mag/cell
     absolute magnetization    =     4.83 Bohr mag/cell

     iteration # 29     ecut=    40.00 Ry     beta= 0.10
     Davidson diagonalization with overlap
     ethr =  2.38E-10,  avg # of iterations =  2.0
     Minimization algorithm failed to find Fermi energy: reverting to bisection
     Possible cause: smearing is larger than the electronic band-gap.

     negative rho (up, down):  8.084E-02 1.723E-01

     total cpu time spent up to now is      202.8 secs

     total energy              =    -559.57520184 Ry
     estimated scf accuracy    <       0.00000010 Ry

     total magnetization       =     3.98 Bohr mag/cell
     absolute magnetization    =     4.82 Bohr mag/cell

     iteration # 30     ecut=    40.00 Ry     beta= 0.10
     Davidson diagonalization with overlap
     ethr =  1.49E-10,  avg # of iterations =  2.5

     negative rho (up, down):  8.073E-02 1.723E-01

     total cpu time spent up to now is      209.0 secs

     total energy              =    -559.57525246 Ry
     estimated scf accuracy    <       0.00000008 Ry

     total magnetization       =     3.97 Bohr mag/cell
     absolute magnetization    =     4.82 Bohr mag/cell

     iteration # 31     ecut=    40.00 Ry     beta= 0.10
     Davidson diagonalization with overlap
     ethr =  1.14E-10,  avg # of iterations =  4.0
     Minimization algorithm failed to find Fermi energy: reverting to bisection
     Possible cause: smearing is larger than the electronic band-gap.

     negative rho (up, down):  8.064E-02 1.724E-01

     total cpu time spent up to now is      215.4 secs

     total energy              =    -559.57529736 Ry
     estimated scf accuracy    <       0.00000007 Ry

     total magnetization       =     3.97 Bohr mag/cell
     absolute magnetization    =     4.81 Bohr mag/cell

     iteration # 32     ecut=    40.00 Ry     beta= 0.10
     Davidson diagonalization with overlap
     ethr =  1.01E-10,  avg # of iterations =  2.0
     Minimization algorithm failed to find Fermi energy: reverting to bisection
     Possible cause: smearing is larger than the electronic band-gap.

     negative rho (up, down):  8.055E-02 1.769E-01
 
     Magnetic moment per site  (integrated on atomic sphere of radius R)
     atom   1 (R=0.021)  charge=  1.8060  magn=  0.0513
     atom   2 (R=0.021)  charge=  1.0304  magn=  0.0036
     atom   3 (R=0.021)  charge=  1.8078  magn=  0.0511
     atom   4 (R=0.021)  charge=  1.0300  magn=  0.0033
     atom   5 (R=0.021)  charge=  1.8116  magn=  0.0550
     atom   6 (R=0.021)  charge=  1.0346  magn= -0.0025
     atom   7 (R=0.037)  charge= 13.2629  magn=  2.8017
     atom   8 (R=0.021)  charge=  1.0350  magn= -0.0025
     atom   9 (R=0.021)  charge=  1.8113  magn=  0.0548
     atom  10 (R=0.021)  charge=  1.0298  magn=  0.0037
     atom  11 (R=0.021)  charge=  1.8076  magn=  0.0510
     atom  12 (R=0.021)  charge=  1.0308  magn=  0.0038
     atom  13 (R=0.021)  charge=  1.8069  magn=  0.0511

     total cpu time spent up to now is      221.4 secs

     End of self-consistent calculation
 --- enter write_ns ---
 LDA+U parameters:
U( 3)     =  6.00000000
atom    7   Tr[ns(na)] (up, down, total) =   4.79012  1.81423  6.60435
   spin  1
    eigenvalues: 
  0.899  0.899  0.997  0.997  0.997
    eigenvectors:
  0.494  0.209  0.080  0.209  0.008
  0.093  0.052  0.319  0.428  0.109
  0.339  0.001  0.457  0.162  0.041
  0.004  0.097  0.117  0.071  0.710
  0.071  0.641  0.027  0.130  0.132
    occupations:
  0.928 -0.011 -0.039  0.010 -0.017
 -0.011  0.983 -0.018 -0.009  0.026
 -0.039 -0.018  0.964 -0.005  0.018
  0.010 -0.009 -0.005  0.987  0.026
 -0.017  0.026  0.018  0.026  0.928
   spin  2
    eigenvalues: 
  0.062  0.065  0.072  0.805  0.810
    eigenvectors:
  0.013  0.223  0.077  0.252  0.435
  0.092  0.436  0.336  0.035  0.102
  0.048  0.167  0.441  0.001  0.344
  0.728  0.045  0.123  0.097  0.007
  0.119  0.130  0.023  0.615  0.112
    occupations:
  0.576  0.088  0.298 -0.075  0.127
  0.088  0.169  0.132  0.061 -0.189
  0.298  0.132  0.325  0.032 -0.128
 -0.075  0.061  0.032  0.141 -0.202
  0.127 -0.189 -0.128 -0.202  0.604
atomic mag. moment =   2.97589
N of occupied +U levels =    6.604346
 --- exit write_ns ---

 ------ SPIN UP ------------


          k = 0.0000 0.0000 0.0000 (201544 PWs)   bands (ev):

   -99.4127 -65.3289 -65.2687 -65.1874 -24.4454 -24.4015 -24.3938 -24.3750
   -24.2062 -24.1872 -16.4937 -16.2613 -16.2397 -16.1708 -16.1544 -15.6238
   -13.8057 -13.1624 -12.9718 -11.2725 -11.1822 -10.6324 -10.6093 -10.5108
   -10.5016 -10.4998 -10.3843 -10.3338 -10.1977 -10.1817 -10.0608  -9.9613
    -9.8803  -9.8335  -9.8072  -9.6802  -9.5966  -7.6479  -7.6339  -3.2387
    -3.0879  -2.8580  -2.5266  -2.4847  -2.3772  -1.9674  -1.8631  -1.5499
    -0.9837  -0.9142  -0.8998  -0.8761  -0.5174  -0.5152  -0.4142  -0.4043
    -0.3879  -0.2637  -0.2571  -0.2215  -0.2130  -0.1462  -0.1454  -0.1326
    -0.1111  -0.1030  -0.0652  -0.0648  -0.0622  -0.0610  -0.0418  -0.0398
     0.0156   0.0213   0.3047   0.3175   0.3259   0.3294   0.3460   0.3474
     0.3645   0.3950   0.4037   0.4065   0.4239   0.4291   0.4298   0.4454
     0.4483   0.4485   0.4573   0.4586   0.6188   0.6263   0.6292   0.6402
     0.6427   0.6463   0.6509   0.6527   0.6570   0.6607   0.6661   0.6672
     0.7867   0.7892   0.8106   0.8188   0.8223   0.8278   0.8289   0.8555
     0.9658   0.9883   0.9909   1.0028   1.0163   1.0176   1.0213   1.0243
     1.0331   1.0363   1.0415   1.0448   1.0889   1.0950   1.0978   1.1166
     1.1244   1.1360   1.1403   1.1414   1.1455   1.1542   1.1597   1.1608
     1.1832   1.1991   1.2118   1.2147   1.2157   1.2177   1.2699   1.2711
     1.2711   1.2727   1.2923   1.2934   1.4695   1.4943   1.4990   1.5008
     1.5052   1.5070   1.5181   1.5237   1.5299   1.5304   1.5369   1.5424
     1.7454   1.7642   1.7762   1.7954   1.8344   1.8645   1.8789   1.9109
     1.9213   1.9252   1.9273   1.9397   1.9589   1.9618   1.9662   1.9761
     1.9805   1.9810   1.9857   1.9896   1.9949   2.0010   2.0073   2.0090
     2.0181   2.0198   2.0653   2.0707   2.0871   2.0872   2.1084   2.1115
     2.1237   2.1246   2.1372   2.1395   2.1528   2.1610   2.1661   2.1692

 ------ SPIN DOWN ----------


          k = 0.0000 0.0000 0.0000 (201544 PWs)   bands (ev):

   -95.9329 -61.8661 -61.8375 -61.8337 -24.2983 -24.2546 -24.2441 -24.2262
   -24.0536 -24.0406 -15.6280 -14.8632 -14.8537 -13.6661 -13.0638 -12.8434
   -10.8902 -10.8210 -10.6479 -10.6136 -10.4995 -10.4152 -10.3865 -10.3742
   -10.3521 -10.1279 -10.0739  -9.9113  -9.7985  -9.7414  -9.7293  -9.7258
    -9.5150  -9.3521  -7.0191  -6.9816  -6.5341  -6.4870  -6.4430  -2.7168
    -2.5805  -2.4079  -2.3931  -2.3602  -2.2996  -1.8905  -1.7806  -1.4569
    -0.9651  -0.8867  -0.8432  -0.8306  -0.6023  -0.5814  -0.5023  -0.5016
    -0.4376  -0.3613  -0.2996  -0.2960  -0.2799  -0.2622  -0.2253  -0.1900
    -0.1662  -0.1610  -0.1541  -0.1521  -0.1141  -0.1132  -0.1009  -0.0961
    -0.0337  -0.0286   0.2214   0.2322   0.2366   0.2554   0.2557   0.2580
     0.2935   0.3049   0.3455   0.3507   0.3638   0.3644   0.3683   0.3909
     0.3949   0.3994   0.4013   0.4093   0.5481   0.5587   0.5645   0.5719
     0.5723   0.5772   0.5785   0.5836   0.5941   0.6017   0.6049   0.6160
     0.7174   0.7218   0.7537   0.7541   0.7652   0.7677   0.7861   0.8080
     0.8719   0.8867   0.9158   0.9367   0.9399   0.9410   0.9484   0.9552
     0.9695   0.9751   0.9771   0.9935   1.0208   1.0358   1.0430   1.0443
     1.0562   1.0589   1.0714   1.0787   1.0889   1.0983   1.1013   1.1057
     1.1338   1.1482   1.1539   1.1559   1.1638   1.1646   1.1900   1.1915
     1.2280   1.2284   1.2285   1.2330   1.3805   1.4173   1.4202   1.4403
     1.4420   1.4424   1.4494   1.4632   1.4685   1.4709   1.4739   1.4879
     1.6342   1.6766   1.7249   1.7274   1.7595   1.8014   1.8092   1.8448
     1.8557   1.8588   1.8676   1.8786   1.8839   1.8905   1.9016   1.9121
     1.9222   1.9269   1.9271   1.9336   1.9361   1.9382   1.9492   1.9586
     1.9595   1.9757   1.9891   2.0090   2.0215   2.0289   2.0417   2.0475
     2.0508   2.0678   2.0765   2.0886   2.0897   2.0955   2.1010   2.1052

     the Fermi energy is    -9.4564 ev

!    total energy              =    -559.57547144 Ry
     estimated scf accuracy    <       0.00000004 Ry
     smearing contrib. (-TS)   =       0.00493357 Ry
     internal energy E=F+TS    =    -559.58040501 Ry

     The total energy is F=E-TS. E is the sum of the following terms:
     one-electron contribution =   -1678.09790052 Ry
     hartree contribution      =     837.57965620 Ry
     xc contribution           =     -92.50449458 Ry
     ewald contribution        =     486.52218258 Ry
     Hubbard energy            =       0.15134748 Ry
     one-center paw contrib.   =    -113.23119617 Ry

     total magnetization       =     3.97 Bohr mag/cell
     absolute magnetization    =     4.81 Bohr mag/cell

     convergence has been achieved in  32 iterations

     negative rho (up, down):  8.055E-02 1.769E-01

     Forces acting on atoms (cartesian axes, Ry/au):

     atom    1 type  1   force =    -0.00475362   -0.01249498    0.02350059
     atom    2 type  2   force =     0.00119233    0.00376021    0.00127495
     atom    3 type  1   force =     0.01551154    0.02062350    0.00482957
     atom    4 type  2   force =    -0.00165470   -0.00060143    0.00487788
     atom    5 type  1   force =    -0.01961580    0.01218717    0.00135303
     atom    6 type  2   force =    -0.00195339    0.00262923    0.00127435
     atom    7 type  3   force =     0.00075391    0.00025516    0.00073116
     atom    8 type  2   force =     0.00253203   -0.00278102   -0.00291040
     atom    9 type  1   force =     0.01834709   -0.01186301   -0.00055332
     atom   10 type  2   force =     0.00176038    0.00169402   -0.00587410
     atom   11 type  1   force =    -0.01565517   -0.02183172   -0.00428599
     atom   12 type  2   force =    -0.00152471   -0.00393273   -0.00249579
     atom   13 type  1   force =     0.00506010    0.01235560   -0.02172196

     Total force =     0.062992     Total SCF correction =     0.000230


     Computing stress (Cartesian axis) and pressure


     negative rho (up, down):  8.055E-02 1.769E-01
          total   stress  (Ry/bohr**3)                   (kbar)     P=       -1.24
  -0.00000838  -0.00000007   0.00000004           -1.23       -0.01        0.01
  -0.00000007  -0.00000845  -0.00000004           -0.01       -1.24       -0.01
   0.00000004  -0.00000004  -0.00000851            0.01       -0.01       -1.25


     Writing output data file ./out/aiida.save/
 
     init_run     :      8.36s CPU      8.75s WALL (       1 calls)
     electrons    :    204.36s CPU    212.85s WALL (       1 calls)
     forces       :      3.81s CPU      3.95s WALL (       1 calls)
     stress       :     10.49s CPU     10.79s WALL (       1 calls)

     Called by init_run:
     wfcinit      :      1.33s CPU      1.38s WALL (       1 calls)
     potinit      :      1.88s CPU      1.94s WALL (       1 calls)
     hinit0       :      2.98s CPU      3.14s WALL (       1 calls)

     Called by electrons:
     c_bands      :    119.36s CPU    121.55s WALL (      32 calls)
     sum_band     :     50.11s CPU     53.07s WALL (      32 calls)
     v_of_rho     :     14.14s CPU     14.66s WALL (      33 calls)
     newd         :     12.29s CPU     14.81s WALL (      33 calls)
     PAW_pot      :      3.31s CPU      3.32s WALL (      33 calls)
     mix_rho      :      3.60s CPU      3.67s WALL (      32 calls)

     Called by c_bands:
     init_us_2    :      0.28s CPU      0.30s WALL (     140 calls)
     regterg      :    118.09s CPU    120.20s WALL (      65 calls)

     Called by *egterg:
     rdiaghg      :      4.35s CPU      4.40s WALL (     332 calls)
     h_psi        :     82.04s CPU     83.14s WALL (     334 calls)
     s_psi        :      1.38s CPU      1.39s WALL (     340 calls)
     g_psi        :      0.26s CPU      0.26s WALL (     267 calls)

     Called by h_psi:
     h_psi:calbec :      1.23s CPU      1.25s WALL (     334 calls)
     vloc_psi     :     77.85s CPU     78.90s WALL (     334 calls)
     add_vuspsi   :      1.37s CPU      1.39s WALL (     334 calls)
     vhpsi        :      0.90s CPU      0.91s WALL (     334 calls)

     General routines
     calbec       :      3.54s CPU      3.59s WALL (    2082 calls)
     fft          :     14.04s CPU     14.16s WALL (     720 calls)
     ffts         :      0.64s CPU      0.65s WALL (     130 calls)
     fftw         :     59.59s CPU     60.38s WALL (   37436 calls)
     interpolate  :      1.68s CPU      1.70s WALL (      66 calls)
     davcio       :      0.00s CPU      0.00s WALL (       2 calls)
 
     Parallel routines

     Hubbard U routines
     new_ns       :      0.42s CPU      0.43s WALL (      32 calls)
     vhpsi        :      0.90s CPU      0.91s WALL (     334 calls)
     force_hub    :      0.39s CPU      0.40s WALL (       1 calls)
     stres_hub    :      1.12s CPU      1.15s WALL (       1 calls)
 
     PWSCF        :   3m48.35s CPU   3m59.42s WALL

 
   This run was terminated on:  17:24:35   2Apr2025            

=------------------------------------------------------------------------------=
   JOB DONE.
=------------------------------------------------------------------------------=
