
     Program PWSCF v.7.0 starts on 22Dec2024 at  5:38:17 

     This program is part of the open-source Quantum ESPRESSO suite
     for quantum simulation of materials; please cite
         "P. Giannozzi et al., J. Phys.:Condens. Matter 21 395502 (2009);
         "P. Giannozzi et al., J. Phys.:Condens. Matter 29 465901 (2017);
         "P. Giannozzi et al., J. Chem. Phys. 152 154105 (2020);
          URL http://www.quantum-espresso.org", 
     in publications or presentations arising from this work. More details at
     http://www.quantum-espresso.org/quote

     Parallel version (MPI & OpenMP), running on     288 processor cores
     Number of MPI processes:               288
     Threads/MPI process:                     1

     MPI processes distributed on     8 nodes
     band groups division:  nbgrp     =       2
     R & G space division:  proc/nbgrp/npool/nimage =     144
     123710 MiB available memory on the printing compute node when the environment starts
 
     Reading input from pwscf.in

     Current dimensions of program PWSCF are:
     Max number of different atomic species (ntypx) = 10
     Max number of k-points (npk) =  40000
     Max angular momentum in pseudopotentials (lmaxx) =  4

     IMPORTANT: XC functional enforced from input :
     Exchange-correlation= PBE0
                           (   6   4   8   4   0   0   0)
     EXX-fraction              =        0.25
     Any further DFT definition will be discarded
     Please, verify this is what you really want


     gamma-point specific algorithms are used
     EXX: q-point mesh:     1    1    1
     EXX: grid of k+q points same as grid of k-points

     Subspace diagonalization in iterative solution of the eigenvalue problem:
     one sub-group per band group will be used
     scalapack distributed-memory algorithm (size of sub-group: 12* 12 procs)

 
     Parallelization info
     --------------------
     sticks:   dense  smooth     PW     G-vecs:    dense   smooth      PW
     Min         146     146     36                22382    22382    2788
     Max         148     148     38                22404    22404    2818
     Sum       21205   21205   5305              3224425  3224425  403087
 
     Using Slab Decomposition
 


     bravais-lattice index     =            0
     lattice parameter (alat)  =      43.8349  a.u.
     unit-cell volume          =   94338.8593 (a.u.)^3
     number of atoms/cell      =          229
     number of atomic types    =            6
     number of electrons       =      1810.00
     number of Kohn-Sham states=         1086
     kinetic-energy cutoff     =      40.0000  Ry
     charge density cutoff     =     160.0000  Ry
     cutoff for Fock operator  =      40.0000  Ry
     scf convergence threshold =      1.0E-06
     mixing beta               =       0.1000
     number of iterations used =            8  local-TF  mixing
     Exchange-correlation= PBE0
                           (   6   4   8   4   0   0   0)
     EXX-fraction              =        0.25

     celldm(1)=  43.834893  celldm(2)=   0.000000  celldm(3)=   0.000000
     celldm(4)=   0.000000  celldm(5)=   0.000000  celldm(6)=   0.000000

     crystal axes: (cart. coord. in units of alat)
               a(1) = (   1.000000   0.000000   0.000000 )  
               a(2) = (  -0.500000   0.866025   0.000000 )  
               a(3) = (   0.000000   0.000000   1.293303 )  

     reciprocal axes: (cart. coord. in units 2 pi/alat)
               b(1) = (  1.000000  0.577350  0.000000 )  
               b(2) = (  0.000000  1.154701  0.000000 )  
               b(3) = (  0.000000  0.000000  0.773214 )  


     PseudoPot. # 1 for O  read from file:
     ./pseudo/O_ONCV_PBE-1.2.upf
     MD5 check sum: e36c48deb68f4e355fffe4602be2c42c
     Pseudo is Norm-conserving, Zval =  6.0
     Generated using ONCVPSP code by D. R. Hamann
     Using radial grid of  602 points,  4 beta functions with: 
                l(1) =   0
                l(2) =   0
                l(3) =   1
                l(4) =   1

     PseudoPot. # 2 for Ce read from file:
     ./pseudo/Ce.UPF
     MD5 check sum: e7cedf3e0b54e52e52de1bb13e49837c
     Pseudo is Norm-conserving, Zval = 12.0
     Generated in analytical, separable form
     Using radial grid of  400 points,  6 beta functions with: 
                l(1) =   0
                l(2) =   0
                l(3) =   1
                l(4) =   1
                l(5) =   2
                l(6) =   3

     PseudoPot. # 3 for H  read from file:
     ./pseudo/H_ONCV_PBE-1.2.upf
     MD5 check sum: bf21e08b90ac4ce7d0149ac4e8138190
     Pseudo is Norm-conserving, Zval =  1.0
     Generated using ONCVPSP code by D. R. Hamann
     Using radial grid of  602 points,  2 beta functions with: 
                l(1) =   0
                l(2) =   0

     PseudoPot. # 4 for N  read from file:
     ./pseudo/N_ONCV_PBE-1.2.upf
     MD5 check sum: c233fa8df51455e992258b7c3dee8a9f
     Pseudo is Norm-conserving, Zval =  5.0
     Generated using ONCVPSP code by D. R. Hamann
     Using radial grid of  602 points,  4 beta functions with: 
                l(1) =   0
                l(2) =   0
                l(3) =   1
                l(4) =   1

     PseudoPot. # 5 for O  read from file:
     ./pseudo/O_ONCV_PBE-1.2.upf
     MD5 check sum: e36c48deb68f4e355fffe4602be2c42c
     Pseudo is Norm-conserving, Zval =  6.0
     Generated using ONCVPSP code by D. R. Hamann
     Using radial grid of  602 points,  4 beta functions with: 
                l(1) =   0
                l(2) =   0
                l(3) =   1
                l(4) =   1

     PseudoPot. # 6 for Fe read from file:
     ./pseudo/Fe_ONCV_PBE-1.2.upf
     MD5 check sum: 0a0a3b4237ca738a29386c4fd1f8ac5e
     Pseudo is Norm-conserving, Zval = 16.0
     Generated using ONCVPSP code by D. R. Hamann
     Using radial grid of  602 points,  6 beta functions with: 
                l(1) =   0
                l(2) =   0
                l(3) =   1
                l(4) =   1
                l(5) =   2
                l(6) =   2

     atomic species   valence    mass     pseudopotential
        O              6.00    15.99940     O ( 1.00)
        Ce            12.00   140.11600     Ce( 1.00)
        H              1.00     1.00794     H ( 1.00)
        N              5.00    14.00670     N ( 1.00)
        C              6.00    12.01070     O ( 1.00)
        Fe            16.00    55.84500     Fe( 1.00)

     Starting magnetic structure 
     atomic species   magnetization
        O            0.100
        Ce           0.417
        H            0.000
        N            0.000
        C            0.000
        Fe           0.417

     No symmetry found


                                    s                        frac. trans.

      isym =  1     identity                                     

 cryst.   s( 1) = (     1          0          0      )
                  (     0          1          0      )
                  (     0          0          1      )

 cart.    s( 1) = (  1.0000000  0.0000000  0.0000000 )
                  (  0.0000000  1.0000000  0.0000000 )
                  (  0.0000000  0.0000000  1.0000000 )


   Cartesian axes

     site n.     atom                  positions (alat units)
         1           O   tau(   1) = (   0.0833330   0.2405628   0.2721652  )
         2           O   tau(   2) = (   0.0833331   0.8179129   0.2721652  )
         3           O   tau(   3) = (   0.0833335   0.5292376   0.2721652  )
         4           O   tau(   4) = (   0.1666664   0.6735755   0.2721652  )
         5           O   tau(   5) = (   0.1666665   0.0962249   0.2721652  )
         6           O   tau(   6) = (   0.1666667   0.3849002   0.2721652  )
         7           O   tau(   7) = (   0.2499996   0.8179129   0.2721652  )
         8           O   tau(   8) = (   0.2500000   0.5292376   0.2721652  )
         9           O   tau(   9) = (   0.2500000   0.2405628   0.2721652  )
        10           O   tau(  10) = (   0.3333329   0.6735755   0.2721652  )
        11           O   tau(  11) = (   0.3333332   0.3849002   0.2721652  )
        12           O   tau(  12) = (   0.3333335   0.0962249   0.2721652  )
        13           O   tau(  13) = (   0.4166664   0.5292376   0.2721652  )
        14           O   tau(  14) = (   0.4166665   0.2405628   0.2721652  )
        15           O   tau(  15) = (   0.4166666   0.8179129   0.2721652  )
        16           O   tau(  16) = (  -0.0000000   0.0962249   0.2721652  )
        17           O   tau(  17) = (  -0.0000001   0.6735755   0.2721652  )
        18           O   tau(  18) = (  -0.0000003   0.3849002   0.2721652  )
        19           O   tau(  19) = (  -0.0833334   0.8179129   0.2721652  )
        20           O   tau(  20) = (  -0.0833335   0.2405628   0.2721652  )
        21           O   tau(  21) = (  -0.0833336   0.5292376   0.2721652  )
        22           O   tau(  22) = (  -0.1666668   0.3849002   0.2721652  )
        23           O   tau(  23) = (  -0.1666671   0.6735755   0.2721652  )
        24           O   tau(  24) = (  -0.2500001   0.5292376   0.2721652  )
        25           O   tau(  25) = (  -0.2500004   0.8179129   0.2721652  )
        26           O   tau(  26) = (  -0.3333336   0.6735755   0.2721652  )
        27           O   tau(  27) = (  -0.4166669   0.8179129   0.2721652  )
        28           O   tau(  28) = (   0.4999997   0.3849002   0.2721652  )
        29           O   tau(  29) = (   0.4999999   0.6735755   0.2721652  )
        30           O   tau(  30) = (   0.5000000   0.0962249   0.2721652  )
        31           O   tau(  31) = (   0.5833329   0.2405628   0.2721652  )
        32           O   tau(  32) = (   0.5833335   0.5292376   0.2721652  )
        33           O   tau(  33) = (   0.6666665   0.0962249   0.2721652  )
        34           O   tau(  34) = (   0.6666667   0.3849002   0.2721652  )
        35           O   tau(  35) = (   0.7500000   0.2405628   0.2721652  )
        36           O   tau(  36) = (   0.8333335   0.0962249   0.2721652  )
        37           Ce  tau(  37) = (   0.0000000   0.0000000   0.3061864  )
        38           Ce  tau(  38) = (   0.0000002   0.5773501   0.3061864  )
        39           Ce  tau(  39) = (   0.0833332   0.7216879   0.3061864  )
        40           Ce  tau(  40) = (   0.0833332   0.1443374   0.3061864  )
        41           Ce  tau(  41) = (   0.0833334   0.4330127   0.3061864  )
        42           Ce  tau(  42) = (   0.1666665   0.0000000   0.3061864  )
        43           Ce  tau(  43) = (   0.1666667   0.5773501   0.3061864  )
        44           Ce  tau(  44) = (   0.1666667   0.2886753   0.3061864  )
        45           Ce  tau(  45) = (   0.2499997   0.7216879   0.3061864  )
        46           Ce  tau(  46) = (   0.2499999   0.4330127   0.3061864  )
        47           Ce  tau(  47) = (   0.2500002   0.1443374   0.3061864  )
        48           Ce  tau(  48) = (   0.3333332   0.5773501   0.3061864  )
        49           Ce  tau(  49) = (   0.3333332   0.2886753   0.3061864  )
        50           Ce  tau(  50) = (   0.3333335   0.0000000   0.3061864  )
        51           Ce  tau(  51) = (   0.4166665   0.4330127   0.3061864  )
        52           Ce  tau(  52) = (   0.4166667   0.7216879   0.3061864  )
        53           Ce  tau(  53) = (   0.4166667   0.1443374   0.3061864  )
        54           Ce  tau(  54) = (  -0.0000003   0.2886753   0.3061864  )
        55           Ce  tau(  55) = (  -0.0833333   0.1443374   0.3061864  )
        56           Ce  tau(  56) = (  -0.0833333   0.7216879   0.3061864  )
        57           Ce  tau(  57) = (  -0.0833336   0.4330127   0.3061864  )
        58           Ce  tau(  58) = (  -0.1666668   0.2886753   0.3061864  )
        59           Ce  tau(  59) = (  -0.1666668   0.5773501   0.3061864  )
        60           Ce  tau(  60) = (  -0.2500001   0.4330127   0.3061864  )
        61           Ce  tau(  61) = (  -0.2500003   0.7216879   0.3061864  )
        62           Ce  tau(  62) = (  -0.3333333   0.5773501   0.3061864  )
        63           Ce  tau(  63) = (   0.4999997   0.2886753   0.3061864  )
        64           Ce  tau(  64) = (   0.5000000   0.0000000   0.3061864  )
        65           Ce  tau(  65) = (   0.5000002   0.5773501   0.3061864  )
        66           Ce  tau(  66) = (   0.5833332   0.7216879   0.3061864  )
        67           Ce  tau(  67) = (   0.5833332   0.1443374   0.3061864  )
        68           Ce  tau(  68) = (   0.5833334   0.4330127   0.3061864  )
        69           Ce  tau(  69) = (   0.6666665   0.0000000   0.3061864  )
        70           Ce  tau(  70) = (   0.6666667   0.2886753   0.3061864  )
        71           Ce  tau(  71) = (   0.7500002   0.1443374   0.3061864  )
        72           Ce  tau(  72) = (   0.8333335   0.0000000   0.3061864  )
        73           O   tau(  73) = (   0.0000002   0.4811252   0.3402076  )
        74           O   tau(  74) = (   0.0833332   0.0481125   0.3402076  )
        75           O   tau(  75) = (   0.0833334   0.6254625   0.3402076  )
        76           O   tau(  76) = (   0.0833334   0.3367877   0.3402076  )
        77           O   tau(  77) = (   0.1666664   0.7698004   0.3402076  )
        78           O   tau(  78) = (   0.1666667   0.4811252   0.3402076  )
        79           O   tau(  79) = (   0.1666670   0.1924499   0.3402076  )
        80           O   tau(  80) = (   0.2499999   0.6254625   0.3402076  )
        81           O   tau(  81) = (   0.2500000   0.3367877   0.3402076  )
        82           O   tau(  82) = (   0.2500002   0.0481125   0.3402076  )
        83           O   tau(  83) = (   0.3333332   0.4811252   0.3402076  )
        84           O   tau(  84) = (   0.3333334   0.7698004   0.3402076  )
        85           O   tau(  85) = (   0.3333335   0.1924499   0.3402076  )
        86           O   tau(  86) = (   0.4166664   0.3367877   0.3402076  )
        87           O   tau(  87) = (   0.4166668   0.0481125   0.3402076  )
        88           O   tau(  88) = (   0.4166670   0.6254625   0.3402076  )
        89           O   tau(  89) = (  -0.0000000   0.1924499   0.3402076  )
        90           O   tau(  90) = (  -0.0000001   0.7698004   0.3402076  )
        91           O   tau(  91) = (  -0.0833331   0.6254625   0.3402076  )
        92           O   tau(  92) = (  -0.0833336   0.3367877   0.3402076  )
        93           O   tau(  93) = (  -0.1666666   0.7698004   0.3402076  )
        94           O   tau(  94) = (  -0.1666668   0.4811252   0.3402076  )
        95           O   tau(  95) = (  -0.2500001   0.6254625   0.3402076  )
        96           O   tau(  96) = (  -0.3333336   0.7698004   0.3402076  )
        97           O   tau(  97) = (   0.4999999   0.7698004   0.3402076  )
        98           O   tau(  98) = (   0.5000000   0.1924499   0.3402076  )
        99           O   tau(  99) = (   0.5000002   0.4811252   0.3402076  )
       100           O   tau( 100) = (   0.5833332   0.0481125   0.3402076  )
       101           O   tau( 101) = (   0.5833335   0.6254625   0.3402076  )
       102           O   tau( 102) = (   0.5833335   0.3367877   0.3402076  )
       103           O   tau( 103) = (   0.6666667   0.4811252   0.3402076  )
       104           O   tau( 104) = (   0.6666670   0.1924499   0.3402076  )
       105           O   tau( 105) = (   0.7500000   0.3367877   0.3402076  )
       106           O   tau( 106) = (   0.7500003   0.0481125   0.3402076  )
       107           O   tau( 107) = (   0.8333335   0.1924499   0.3402076  )
       108           O   tau( 108) = (   0.9166668   0.0481125   0.3402076  )
       109           O   tau( 109) = (   0.0832907   0.7217257   0.4066810  )
       110           O   tau( 110) = (   0.3335177   0.2937156   0.4100150  )
       111           O   tau( 111) = (  -0.1666518   0.2886838   0.4065443  )
       112           O   tau( 112) = (  -0.4166003   0.7217422   0.4066748  )
       113           O   tau( 113) = (   0.1666991   0.5773614   0.4068614  )
       114           O   tau( 114) = (   0.4167578   0.1443427   0.4068824  )
       115           O   tau( 115) = (  -0.0834068   0.1442972   0.4066441  )
       116           O   tau( 116) = (  -0.3335288   0.5772368   0.4067707  )
       117           O   tau( 117) = (  -0.0006011   0.2887219   0.4065513  )
       118           O   tau( 118) = (   0.2497136   0.7221928   0.4066084  )
       119           O   tau( 119) = (  -0.2500236   0.7216721   0.4066854  )
       120           O   tau( 120) = (   0.5016585   0.2878502   0.4059490  )
       121           O   tau( 121) = (   0.0832734   0.4330656   0.4067911  )
       122           O   tau( 122) = (   0.3333504   0.0001207   0.4067064  )
       123           O   tau( 123) = (   0.5833946   0.4330328   0.4067982  )
       124           O   tau( 124) = (   0.8333475   0.0001001   0.4066604  )
       125           O   tau( 125) = (   0.0000072   0.0000146   0.4065315  )
       126           O   tau( 126) = (   0.2540897   0.4308632   0.4100195  )
       127           O   tau( 127) = (  -0.2499328   0.4330604   0.4066573  )
       128           O   tau( 128) = (   0.5000263  -0.0001146   0.4066327  )
       129           O   tau( 129) = (   0.1666540  -0.0001637   0.4066088  )
       130           O   tau( 130) = (   0.4128367   0.4309987   0.4097859  )
       131           O   tau( 131) = (  -0.0834179   0.4330640   0.4066399  )
       132           O   tau( 132) = (   0.6666714  -0.0000010   0.4065471  )
       133           O   tau( 133) = (   0.1650180   0.2879570   0.4059246  )
       134           O   tau( 134) = (   0.4169887   0.7221752   0.4066333  )
       135           O   tau( 135) = (  -0.0833206   0.7216652   0.4066696  )
       136           O   tau( 136) = (   0.6672762   0.2887316   0.4065739  )
       137           O   tau( 137) = (   0.2499498   0.1442083   0.4069075  )
       138           O   tau( 138) = (   0.0001875   0.5772452   0.4067606  )
       139           O   tau( 139) = (   0.4999886   0.5774023   0.4068460  )
       140           O   tau( 140) = (   0.7500796   0.1442876   0.4066510  )
       141           O   tau( 141) = (   0.0830871   0.1439073   0.4066482  )
       142           O   tau( 142) = (   0.3334165   0.5793741   0.4059392  )
       143           O   tau( 143) = (  -0.1666763   0.5773368   0.4066802  )
       144           O   tau( 144) = (   0.5835830   0.1438675   0.4066290  )
       145           Ce  tau( 145) = (   0.0831302   0.6256723   0.4415100  )
       146           Ce  tau( 146) = (   0.3333189   0.1918606   0.4415611  )
       147           Ce  tau( 147) = (   0.5835543   0.6256902   0.4415297  )
       148           Ce  tau( 148) = (   0.8333427   0.1923979   0.4418161  )
       149           Ce  tau( 149) = (  -0.0001200   0.7697524   0.4415807  )
       150           Ce  tau( 150) = (   0.2434730   0.3331126   0.4389671  )
       151           Ce  tau( 151) = (   0.5002626   0.7703610   0.4416975  )
       152           Ce  tau( 152) = (   0.7505496   0.3367162   0.4416800  )
       153           Ce  tau( 153) = (   0.1664267   0.7703461   0.4416858  )
       154           Ce  tau( 154) = (   0.4233278   0.3330850   0.4389825  )
       155           Ce  tau( 155) = (  -0.0838419   0.3367158   0.4416787  )
       156           Ce  tau( 156) = (  -0.3331864   0.7697782   0.4415763  )
       157           Ce  tau( 157) = (   0.1660931   0.4814204   0.4414705  )
       158           Ce  tau( 158) = (   0.4167668   0.0478887   0.4415161  )
       159           Ce  tau( 159) = (   0.6669824   0.4811619   0.4415056  )
       160           Ce  tau( 160) = (   0.9166233   0.0482049   0.4418146  )
       161           Ce  tau( 161) = (   0.0811230   0.3365160   0.4416173  )
       162           Ce  tau( 162) = (   0.3333282   0.7705963   0.4418471  )
       163           Ce  tau( 163) = (  -0.1666585   0.7697697   0.4416633  )
       164           Ce  tau( 164) = (   0.5856245   0.3364734   0.4416134  )
       165           Ce  tau( 165) = (   0.2499371   0.0478959   0.4415701  )
       166           Ce  tau( 166) = (  -0.0002992   0.4811608   0.4415186  )
       167           Ce  tau( 167) = (   0.5005603   0.4814325   0.4413264  )
       168           Ce  tau( 168) = (   0.7500554   0.0481913   0.4418072  )
       169           Ce  tau( 169) = (  -0.0005878   0.1921237   0.4417909  )
       170           Ce  tau( 170) = (   0.2490998   0.6276899   0.4416059  )
       171           Ce  tau( 171) = (  -0.2499603   0.6254693   0.4416334  )
       172           Ce  tau( 172) = (   0.5013552   0.1906876   0.4417761  )
       173           Ce  tau( 173) = (   0.0830530   0.0477705   0.4416711  )
       174           Ce  tau( 174) = (   0.3333981   0.4890710   0.4392604  )
       175           Ce  tau( 175) = (  -0.1666626   0.4812260   0.4415488  )
       176           Ce  tau( 176) = (   0.5836385   0.0477315   0.4416829  )
       177           Ce  tau( 177) = (   0.1653927   0.1907338   0.4419040  )
       178           Ce  tau( 178) = (   0.4175981   0.6276984   0.4415869  )
       179           Ce  tau( 179) = (  -0.0833532   0.6254685   0.4416300  )
       180           Ce  tau( 180) = (   0.6672936   0.1920954   0.4417942  )
       181           O   tau( 181) = (   0.1662023   0.3836119   0.4744534  )
       182           O   tau( 182) = (   0.4167139   0.8182679   0.4757906  )
       183           O   tau( 183) = (  -0.0833335   0.8179826   0.4755627  )
       184           O   tau( 184) = (   0.6669572   0.3846983   0.4757600  )
       185           O   tau( 185) = (   0.0843809   0.5286548   0.4753769  )
       186           O   tau( 186) = (   0.3334272   0.0972471   0.4751099  )
       187           O   tau( 187) = (   0.5822747   0.5286057   0.4754745  )
       188           O   tau( 188) = (   0.8333353   0.0962525   0.4758764  )
       189           O   tau( 189) = (   0.2499431   0.8182832   0.4758010  )
       190           O   tau( 190) = (  -0.0003363   0.3847133   0.4756926  )
       191           O   tau( 191) = (  -0.2499509   0.8179807   0.4755745  )
       192           O   tau( 192) = (   0.5004909   0.3835440   0.4746325  )
       193           O   tau( 193) = (   0.1667155   0.6739693   0.4757801  )
       194           O   tau( 194) = (   0.4181493   0.2410953   0.4741788  )
       195           O   tau( 195) = (  -0.0836589   0.2404716   0.4757469  )
       196           O   tau( 196) = (  -0.3334731   0.6734010   0.4756023  )
       197           O   tau( 197) = (   0.0835157   0.8179702   0.4757493  )
       198           O   tau( 198) = (   0.3346203   0.3871948   0.4962087  )
       199           O   tau( 199) = (  -0.1667019   0.3847459   0.4757617  )
       200           O   tau( 200) = (  -0.4168255   0.8179381   0.4757517  )
       201           O   tau( 201) = (   0.2486792   0.2412246   0.4731855  )
       202           O   tau( 202) = (   0.0001582   0.6734315   0.4755902  )
       203           O   tau( 203) = (   0.4999333   0.6739376   0.4757960  )
       204           O   tau( 204) = (   0.7503540   0.2404706   0.4757484  )
       205           O   tau( 205) = (   0.2512667   0.5306462   0.4747555  )
       206           O   tau( 206) = (  -0.0002813   0.0960533   0.4757190  )
       207           O   tau( 207) = (  -0.2501636   0.5291601   0.4756133  )
       208           O   tau( 208) = (   0.5003831   0.0960717   0.4755803  )
       209           O   tau( 209) = (   0.0823887   0.2401358   0.4751495  )
       210           O   tau( 210) = (   0.3333221   0.6747530   0.4755167  )
       211           O   tau( 211) = (  -0.1666706   0.6735287   0.4757216  )
       212           O   tau( 212) = (   0.5843588   0.2400805   0.4751808  )
       213           O   tau( 213) = (   0.1662617   0.0960003   0.4754267  )
       214           O   tau( 214) = (   0.4155146   0.5306273   0.4748651  )
       215           O   tau( 215) = (  -0.0831971   0.5291699   0.4755993  )
       216           O   tau( 216) = (   0.6669557   0.0960217   0.4757260  )
       217           N   tau( 217) = (   0.3347172   0.3776763   0.5501764  )
       218           C   tau( 218) = (   0.3351228   0.3672722   0.5994698  )
       219           N   tau( 219) = (   0.2479572   0.2319841   0.6195565  )
       220           C   tau( 220) = (   0.2743172   0.2670640   0.6449242  )
       221           N   tau( 221) = (   0.4397048   0.2590201   0.6569292  )
       222           C   tau( 222) = (   0.3975244   0.2842571   0.6691989  )
       223           Fe  tau( 223) = (   0.3227173   0.3336231   0.6835117  )
       224           C   tau( 224) = (   0.2478320   0.3844823   0.6860929  )
       225           N   tau( 225) = (   0.2070969   0.4144432   0.6831729  )
       226           C   tau( 226) = (   0.3725169   0.4029882   0.7133489  )
       227           N   tau( 227) = (   0.4008398   0.4432996   0.7247121  )
       228           C   tau( 228) = (   0.3114308   0.3036185   0.7666507  )
       229           N   tau( 229) = (   0.3047919   0.2863908   0.8138394  )

   Crystallographic axes

     site n.     atom                  positions (cryst. coord.)
         1           O   tau(   1) = (  0.2222220  0.2777780  0.2104420  )
         2           O   tau(   2) = (  0.5555555  0.9444445  0.2104420  )
         3           O   tau(   3) = (  0.3888890  0.6111110  0.2104420  )
         4           O   tau(   4) = (  0.5555555  0.7777780  0.2104420  )
         5           O   tau(   5) = (  0.2222220  0.1111110  0.2104420  )
         6           O   tau(   6) = (  0.3888890  0.4444445  0.2104420  )
         7           O   tau(   7) = (  0.7222220  0.9444445  0.2104420  )
         8           O   tau(   8) = (  0.5555555  0.6111110  0.2104420  )
         9           O   tau(   9) = (  0.3888890  0.2777780  0.2104420  )
        10           O   tau(  10) = (  0.7222220  0.7777780  0.2104420  )
        11           O   tau(  11) = (  0.5555555  0.4444445  0.2104420  )
        12           O   tau(  12) = (  0.3888890  0.1111110  0.2104420  )
        13           O   tau(  13) = (  0.7222220  0.6111110  0.2104420  )
        14           O   tau(  14) = (  0.5555555  0.2777780  0.2104420  )
        15           O   tau(  15) = (  0.8888890  0.9444445  0.2104420  )
        16           O   tau(  16) = (  0.0555555  0.1111110  0.2104420  )
        17           O   tau(  17) = (  0.3888890  0.7777780  0.2104420  )
        18           O   tau(  18) = (  0.2222220  0.4444445  0.2104420  )
        19           O   tau(  19) = (  0.3888890  0.9444445  0.2104420  )
        20           O   tau(  20) = (  0.0555555  0.2777780  0.2104420  )
        21           O   tau(  21) = (  0.2222220  0.6111110  0.2104420  )
        22           O   tau(  22) = (  0.0555555  0.4444445  0.2104420  )
        23           O   tau(  23) = (  0.2222220  0.7777780  0.2104420  )
        24           O   tau(  24) = (  0.0555555  0.6111110  0.2104420  )
        25           O   tau(  25) = (  0.2222220  0.9444445  0.2104420  )
        26           O   tau(  26) = (  0.0555555  0.7777780  0.2104420  )
        27           O   tau(  27) = (  0.0555555  0.9444445  0.2104420  )
        28           O   tau(  28) = (  0.7222220  0.4444445  0.2104420  )
        29           O   tau(  29) = (  0.8888890  0.7777780  0.2104420  )
        30           O   tau(  30) = (  0.5555555  0.1111110  0.2104420  )
        31           O   tau(  31) = (  0.7222220  0.2777780  0.2104420  )
        32           O   tau(  32) = (  0.8888890  0.6111110  0.2104420  )
        33           O   tau(  33) = (  0.7222220  0.1111110  0.2104420  )
        34           O   tau(  34) = (  0.8888890  0.4444445  0.2104420  )
        35           O   tau(  35) = (  0.8888890  0.2777780  0.2104420  )
        36           O   tau(  36) = (  0.8888890  0.1111110  0.2104420  )
        37           Ce  tau(  37) = (  0.0000000  0.0000000  0.2367477  )
        38           Ce  tau(  38) = (  0.3333335  0.6666665  0.2367477  )
        39           Ce  tau(  39) = (  0.5000000  0.8333335  0.2367477  )
        40           Ce  tau(  40) = (  0.1666665  0.1666665  0.2367477  )
        41           Ce  tau(  41) = (  0.3333335  0.5000000  0.2367477  )
        42           Ce  tau(  42) = (  0.1666665  0.0000000  0.2367477  )
        43           Ce  tau(  43) = (  0.5000000  0.6666665  0.2367477  )
        44           Ce  tau(  44) = (  0.3333335  0.3333335  0.2367477  )
        45           Ce  tau(  45) = (  0.6666665  0.8333335  0.2367477  )
        46           Ce  tau(  46) = (  0.5000000  0.5000000  0.2367477  )
        47           Ce  tau(  47) = (  0.3333335  0.1666665  0.2367477  )
        48           Ce  tau(  48) = (  0.6666665  0.6666665  0.2367477  )
        49           Ce  tau(  49) = (  0.5000000  0.3333335  0.2367477  )
        50           Ce  tau(  50) = (  0.3333335  0.0000000  0.2367477  )
        51           Ce  tau(  51) = (  0.6666665  0.5000000  0.2367477  )
        52           Ce  tau(  52) = (  0.8333335  0.8333335  0.2367477  )
        53           Ce  tau(  53) = (  0.5000000  0.1666665  0.2367477  )
        54           Ce  tau(  54) = (  0.1666665  0.3333335  0.2367477  )
        55           Ce  tau(  55) = (  0.0000000  0.1666665  0.2367477  )
        56           Ce  tau(  56) = (  0.3333335  0.8333335  0.2367477  )
        57           Ce  tau(  57) = (  0.1666665  0.5000000  0.2367477  )
        58           Ce  tau(  58) = ( -0.0000000  0.3333335  0.2367477  )
        59           Ce  tau(  59) = (  0.1666665  0.6666665  0.2367477  )
        60           Ce  tau(  60) = (  0.0000000  0.5000000  0.2367477  )
        61           Ce  tau(  61) = (  0.1666665  0.8333335  0.2367477  )
        62           Ce  tau(  62) = (  0.0000000  0.6666665  0.2367477  )
        63           Ce  tau(  63) = (  0.6666665  0.3333335  0.2367477  )
        64           Ce  tau(  64) = (  0.5000000  0.0000000  0.2367477  )
        65           Ce  tau(  65) = (  0.8333335  0.6666665  0.2367477  )
        66           Ce  tau(  66) = (  1.0000000  0.8333335  0.2367477  )
        67           Ce  tau(  67) = (  0.6666665  0.1666665  0.2367477  )
        68           Ce  tau(  68) = (  0.8333335  0.5000000  0.2367477  )
        69           Ce  tau(  69) = (  0.6666665  0.0000000  0.2367477  )
        70           Ce  tau(  70) = (  0.8333335  0.3333335  0.2367477  )
        71           Ce  tau(  71) = (  0.8333335  0.1666665  0.2367477  )
        72           Ce  tau(  72) = (  0.8333335  0.0000000  0.2367477  )
        73           O   tau(  73) = (  0.2777780  0.5555555  0.2630533  )
        74           O   tau(  74) = (  0.1111110  0.0555555  0.2630533  )
        75           O   tau(  75) = (  0.4444445  0.7222220  0.2630533  )
        76           O   tau(  76) = (  0.2777780  0.3888890  0.2630533  )
        77           O   tau(  77) = (  0.6111110  0.8888890  0.2630533  )
        78           O   tau(  78) = (  0.4444445  0.5555555  0.2630533  )
        79           O   tau(  79) = (  0.2777780  0.2222220  0.2630533  )
        80           O   tau(  80) = (  0.6111110  0.7222220  0.2630533  )
        81           O   tau(  81) = (  0.4444445  0.3888890  0.2630533  )
        82           O   tau(  82) = (  0.2777780  0.0555555  0.2630533  )
        83           O   tau(  83) = (  0.6111110  0.5555555  0.2630533  )
        84           O   tau(  84) = (  0.7777780  0.8888890  0.2630533  )
        85           O   tau(  85) = (  0.4444445  0.2222220  0.2630533  )
        86           O   tau(  86) = (  0.6111110  0.3888890  0.2630533  )
        87           O   tau(  87) = (  0.4444445  0.0555555  0.2630533  )
        88           O   tau(  88) = (  0.7777780  0.7222220  0.2630533  )
        89           O   tau(  89) = (  0.1111110  0.2222220  0.2630533  )
        90           O   tau(  90) = (  0.4444445  0.8888890  0.2630533  )
        91           O   tau(  91) = (  0.2777780  0.7222220  0.2630533  )
        92           O   tau(  92) = (  0.1111110  0.3888890  0.2630533  )
        93           O   tau(  93) = (  0.2777780  0.8888890  0.2630533  )
        94           O   tau(  94) = (  0.1111110  0.5555555  0.2630533  )
        95           O   tau(  95) = (  0.1111110  0.7222220  0.2630533  )
        96           O   tau(  96) = (  0.1111110  0.8888890  0.2630533  )
        97           O   tau(  97) = (  0.9444445  0.8888890  0.2630533  )
        98           O   tau(  98) = (  0.6111110  0.2222220  0.2630533  )
        99           O   tau(  99) = (  0.7777780  0.5555555  0.2630533  )
       100           O   tau( 100) = (  0.6111110  0.0555555  0.2630533  )
       101           O   tau( 101) = (  0.9444445  0.7222220  0.2630533  )
       102           O   tau( 102) = (  0.7777780  0.3888890  0.2630533  )
       103           O   tau( 103) = (  0.9444445  0.5555555  0.2630533  )
       104           O   tau( 104) = (  0.7777780  0.2222220  0.2630533  )
       105           O   tau( 105) = (  0.9444445  0.3888890  0.2630533  )
       106           O   tau( 106) = (  0.7777780  0.0555555  0.2630533  )
       107           O   tau( 107) = (  0.9444445  0.2222220  0.2630533  )
       108           O   tau( 108) = (  0.9444445  0.0555555  0.2630533  )
       109           O   tau( 109) = (  0.4999793  0.8333771  0.3144515  )
       110           O   tau( 110) = (  0.5030945  0.3391536  0.3170294  )
       111           O   tau( 111) = (  0.0000199  0.3333434  0.3143459  )
       112           O   tau( 112) = (  0.0000979  0.8333961  0.3144468  )
       113           O   tau( 113) = (  0.5000390  0.6666796  0.3145910  )
       114           O   tau( 114) = (  0.5000942  0.1666727  0.3146072  )
       115           O   tau( 115) = ( -0.0000967  0.1666201  0.3144230  )
       116           O   tau( 116) = ( -0.0002608  0.6665357  0.3145209  )
       117           O   tau( 117) = (  0.1660926  0.3333873  0.3143513  )
       118           O   tau( 118) = (  0.6666719  0.8339165  0.3143954  )
       119           O   tau( 119) = (  0.1666341  0.8333152  0.3144550  )
       120           O   tau( 120) = (  0.6678490  0.3323809  0.3138856  )
       121           O   tau( 121) = (  0.3333040  0.5000611  0.3145366  )
       122           O   tau( 122) = (  0.3334201  0.0001394  0.3144712  )
       123           O   tau( 123) = (  0.8334063  0.5000233  0.3145422  )
       124           O   tau( 124) = (  0.8334053  0.0001155  0.3144356  )
       125           O   tau( 125) = (  0.0000156  0.0000168  0.3143359  )
       126           O   tau( 126) = (  0.5028488  0.4975181  0.3170329  )
       127           O   tau( 127) = (  0.0000948  0.5000551  0.3144332  )
       128           O   tau( 128) = (  0.4999602 -0.0001323  0.3144142  )
       129           O   tau( 129) = (  0.1665595 -0.0001891  0.3143957  )
       130           O   tau( 130) = (  0.6616740  0.4976745  0.3168523  )
       131           O   tau( 131) = (  0.1666118  0.5000592  0.3144197  )
       132           O   tau( 132) = (  0.6666708 -0.0000012  0.3143480  )
       133           O   tau( 133) = (  0.3312701  0.3325041  0.3138667  )
       134           O   tau( 134) = (  0.8339369  0.8338962  0.3144147  )
       135           O   tau( 135) = (  0.3333331  0.8333073  0.3144427  )
       136           O   tau( 136) = (  0.8339755  0.3333985  0.3143687  )
       137           O   tau( 137) = (  0.3332085  0.1665174  0.3146267  )
       138           O   tau( 138) = (  0.3334603  0.6665453  0.3145130  )
       139           O   tau( 139) = (  0.8333520  0.6667267  0.3145791  )
       140           O   tau( 140) = (  0.8333841  0.1666090  0.3144283  )
       141           O   tau( 141) = (  0.1661720  0.1661698  0.3144262  )
       142           O   tau( 142) = (  0.6679184  0.6690037  0.3138779  )
       143           O   tau( 143) = (  0.1666494  0.6666512  0.3144509  )
       144           O   tau( 144) = (  0.6666450  0.1661239  0.3144113  )
       145           Ce  tau( 145) = (  0.4443624  0.7224642  0.3413818  )
       146           Ce  tau( 146) = (  0.4440897  0.2215416  0.3414213  )
       147           Ce  tau( 147) = (  0.9447968  0.7224848  0.3413970  )
       148           Ce  tau( 148) = (  0.9444237  0.2221619  0.3416185  )
       149           Ce  tau( 149) = (  0.4442969  0.8888336  0.3414365  )
       150           Ce  tau( 150) = (  0.4357957  0.3846453  0.3394156  )
       151           Ce  tau( 151) = (  0.9450309  0.8895363  0.3415268  )
       152           Ce  tau( 152) = (  0.9449529  0.3888064  0.3415132  )
       153           Ce  tau( 153) = (  0.6111864  0.8895191  0.3415177  )
       154           Ce  tau( 154) = (  0.6156346  0.3846135  0.3394275  )
       155           Ce  tau( 155) = (  0.1105611  0.3888059  0.3415122  )
       156           Ce  tau( 156) = (  0.1112454  0.8888633  0.3414331  )
       157           Ce  tau( 157) = (  0.4440414  0.5558964  0.3413513  )
       158           Ce  tau( 158) = (  0.4444153  0.0552971  0.3413865  )
       159           Ce  tau( 159) = (  0.9447814  0.5555980  0.3413784  )
       160           Ce  tau( 160) = (  0.9444545  0.0556623  0.3416173  )
       161           Ce  tau( 161) = (  0.2754107  0.3885753  0.3414648  )
       162           Ce  tau( 162) = (  0.7782323  0.8898081  0.3416425  )
       163           Ce  tau( 163) = (  0.2777684  0.8888536  0.3415003  )
       164           Ce  tau( 164) = (  0.7798876  0.3885261  0.3414617  )
       165           Ce  tau( 165) = (  0.2775898  0.0553054  0.3414282  )
       166           Ce  tau( 166) = (  0.2774992  0.5555967  0.3413884  )
       167           Ce  tau( 167) = (  0.7785155  0.5559104  0.3412398  )
       168           Ce  tau( 168) = (  0.7778787  0.0556466  0.3416116  )
       169           Ce  tau( 169) = (  0.1103350  0.2218454  0.3415990  )
       170           Ce  tau( 170) = (  0.6114969  0.7247939  0.3414560  )
       171           Ce  tau( 171) = (  0.1111546  0.7222298  0.3414772  )
       172           Ce  tau( 172) = (  0.6114487  0.2201870  0.3415876  )
       173           Ce  tau( 173) = (  0.1106333  0.0551607  0.3415064  )
       174           Ce  tau( 174) = (  0.6157635  0.5647306  0.3396424  )
       175           Ce  tau( 175) = (  0.1111735  0.5556720  0.3414118  )
       176           Ce  tau( 176) = (  0.6111963  0.0551155  0.3415155  )
       177           Ce  tau( 177) = (  0.2755130  0.2202405  0.3416865  )
       178           Ce  tau( 178) = (  0.7800000  0.7248038  0.3414413  )
       179           Ce  tau( 179) = (  0.2777613  0.7222289  0.3414746  )
       180           Ce  tau( 180) = (  0.7782000  0.2218126  0.3416016  )
       181           O   tau( 181) = (  0.3876808  0.4429569  0.3668541  )
       182           O   tau( 182) = (  0.8891412  0.9448545  0.3678880  )
       183           O   tau( 183) = (  0.3889291  0.9445250  0.3677118  )
       184           O   tau( 184) = (  0.8890629  0.4442114  0.3678644  )
       185           O   tau( 185) = (  0.3896000  0.6104380  0.3675682  )
       186           O   tau( 186) = (  0.3895728  0.1122913  0.3673617  )
       187           O   tau( 187) = (  0.8874654  0.6103813  0.3676436  )
       188           O   tau( 188) = (  0.8889067  0.1111428  0.3679544  )
       189           O   tau( 189) = (  0.7223793  0.9448721  0.3678961  )
       190           O   tau( 190) = (  0.2217781  0.4442287  0.3678122  )
       191           O   tau( 191) = (  0.2223106  0.9445229  0.3677209  )
       192           O   tau( 192) = (  0.7219302  0.4428785  0.3669926  )
       193           O   tau( 193) = (  0.5558319  0.7782327  0.3678799  )
       194           O   tau( 194) = (  0.5573458  0.2783929  0.3666418  )
       195           O   tau( 195) = (  0.0551774  0.2776727  0.3678542  )
       196           O   tau( 196) = (  0.0553153  0.7775766  0.3677425  )
       197           O   tau( 197) = (  0.5557711  0.9445107  0.3678561  )
       198           O   tau( 198) = (  0.5581674  0.4470941  0.3836756  )
       199           O   tau( 199) = (  0.0554313  0.4442663  0.3678657  )
       200           O   tau( 200) = (  0.0554115  0.9444737  0.3678580  )
       201           O   tau( 201) = (  0.3879504  0.2785422  0.3658737  )
       202           O   tau( 202) = (  0.3889641  0.7776118  0.3677331  )
       203           O   tau( 203) = (  0.8890315  0.7781962  0.3678923  )
       204           O   tau( 204) = (  0.8891898  0.2776716  0.3678555  )
       205           O   tau( 205) = (  0.5576355  0.6127374  0.3670877  )
       206           O   tau( 206) = (  0.0551751  0.1109128  0.3678327  )
       207           O   tau( 207) = (  0.0553473  0.6110215  0.3677510  )
       208           O   tau( 208) = (  0.5558501  0.1109341  0.3677255  )
       209           O   tau( 209) = (  0.2210312  0.2772849  0.3673924  )
       210           O   tau( 210) = (  0.7228910  0.7791377  0.3676762  )
       211           O   tau( 211) = (  0.2221915  0.7777240  0.3678347  )
       212           O   tau( 212) = (  0.7229694  0.2772211  0.3674165  )
       213           O   tau( 213) = (  0.2216876  0.1108516  0.3676067  )
       214           O   tau( 214) = (  0.7218725  0.6127157  0.3671725  )
       215           O   tau( 215) = (  0.2223194  0.6110329  0.3677401  )
       216           O   tau( 216) = (  0.7223939  0.1108763  0.3678381  )
       217           N   tau( 217) = (  0.5527688  0.4361030  0.4254042  )
       218           C   tau( 218) = (  0.5471676  0.4240894  0.4635186  )
       219           N   tau( 219) = (  0.3818934  0.2678722  0.4790499  )
       220           C   tau( 220) = (  0.4285067  0.3083790  0.4986646  )
       221           N   tau( 221) = (  0.5892502  0.2990906  0.5079470  )
       222           C   tau( 222) = (  0.5616403  0.3282318  0.5174341  )
       223           Fe  tau( 223) = (  0.5153347  0.3852348  0.5285010  )
       224           C   tau( 224) = (  0.4698131  0.4439620  0.5304968  )
       225           N   tau( 225) = (  0.4463758  0.4785578  0.5282390  )
       226           C   tau( 226) = (  0.6051824  0.4653308  0.5515715  )
       227           N   tau( 227) = (  0.6567790  0.5118783  0.5603577  )
       228           C   tau( 228) = (  0.4867251  0.3505884  0.5927853  )
       229           N   tau( 229) = (  0.4701398  0.3306957  0.6292722  )

     number of k points=     1  Methfessel-Paxton smearing, width (Ry)=  0.0200
                       cart. coord. in units 2pi/alat
        k(    1) = (   0.0000000   0.0000000   0.0000000), wk =   1.0000000

                       cryst. coord.
        k(    1) = (   0.0000000   0.0000000   0.0000000), wk =   1.0000000

     Dense  grid:  1612213 G-vectors     FFT dimensions: ( 180, 180, 240)

     Dynamical RAM for                 wfc:      23.18 MB

     Dynamical RAM for     wfc (w. buffer):      23.18 MB

     Dynamical RAM for                 EXX:     117.51 MB

     Dynamical RAM for           str. fact:       1.03 MB

     Dynamical RAM for           local pot:       0.00 MB

     Dynamical RAM for          nlocal pot:      57.77 MB

     Dynamical RAM for                qrad:       8.53 MB

     Dynamical RAM for          rho,v,vnew:       3.99 MB

     Dynamical RAM for               rhoin:       1.33 MB

     Dynamical RAM for           G-vectors:       0.73 MB

     Dynamical RAM for          h,s,v(r/c):       0.75 MB

     Dynamical RAM for          <psi|beta>:      22.42 MB

     Dynamical RAM for                 psi:      46.37 MB

     Dynamical RAM for                hpsi:      46.37 MB

     Dynamical RAM for      wfcinit/wfcrot:      86.56 MB

     Estimated static dynamical RAM per process >     218.23 MB

     Estimated max dynamical RAM per process >     334.13 MB

     Estimated total dynamical RAM >      93.97 GB
     Generating pointlists ...
     new r_m :   0.0226 (alat units)  0.9909 (a.u.) for type    1
     new r_m :   0.0397 (alat units)  1.7405 (a.u.) for type    2
     new r_m :   0.4125 (alat units) 18.0819 (a.u.) for type    3
     new r_m :   0.0208 (alat units)  0.9110 (a.u.) for type    4
     new r_m :   0.0208 (alat units)  0.9110 (a.u.) for type    5
     new r_m :   0.0368 (alat units)  1.6112 (a.u.) for type    6

     Initial potential from superposition of free atoms

     starting charge    1809.2550, renormalised to    1810.0000

     negative rho (up, down):  4.062E-01 2.270E-01
     Starting wfcs are 1224 randomized atomic wfcs

     total cpu time spent up to now is        9.8 secs

     per-process dynamical memory:    50.9 Mb

     Self-consistent Calculation

     iteration #  1     ecut=    40.00 Ry     beta= 0.10
     Davidson diagonalization with overlap

---- Real-time Memory Report at c_bands before calling an iterative solver
             0 MiB given to the printing process from OS
            49 MiB allocation reported by mallinfo(arena+hblkhd)
        114286 MiB available memory on the node where the printing process lives
------------------
     ethr =  1.00E-02,  avg # of iterations = 12.5

     negative rho (up, down):  3.561E-01 1.940E-01

     total cpu time spent up to now is       92.1 secs

     total energy              =  -10518.95760870 Ry
     estimated scf accuracy    <     198.55533705 Ry

     total magnetization       =    16.00 Bohr mag/cell
     absolute magnetization    =    22.80 Bohr mag/cell

     iteration #  2     ecut=    40.00 Ry     beta= 0.10
     Davidson diagonalization with overlap

---- Real-time Memory Report at c_bands before calling an iterative solver
             0 MiB given to the printing process from OS
            50 MiB allocation reported by mallinfo(arena+hblkhd)
        115956 MiB available memory on the node where the printing process lives
------------------
     ethr =  1.00E-02,  avg # of iterations =  1.5

     negative rho (up, down):  5.865E-02 3.024E-02

     total cpu time spent up to now is      111.0 secs

     total energy              =  -10450.21812529 Ry
     estimated scf accuracy    <     175.20508304 Ry

     total magnetization       =    16.00 Bohr mag/cell
     absolute magnetization    =    22.29 Bohr mag/cell

     iteration #  3     ecut=    40.00 Ry     beta= 0.10
     Davidson diagonalization with overlap

---- Real-time Memory Report at c_bands before calling an iterative solver
             0 MiB given to the printing process from OS
            50 MiB allocation reported by mallinfo(arena+hblkhd)
        115637 MiB available memory on the node where the printing process lives
------------------
     ethr =  9.68E-03,  avg # of iterations =  6.5

     negative rho (up, down):  1.769E-02 1.300E-02

     total cpu time spent up to now is      143.7 secs

     total energy              =  -10507.29952513 Ry
     estimated scf accuracy    <     155.96636118 Ry

     total magnetization       =   -12.03 Bohr mag/cell
     absolute magnetization    =    24.80 Bohr mag/cell

     iteration #  4     ecut=    40.00 Ry     beta= 0.10
     Davidson diagonalization with overlap

---- Real-time Memory Report at c_bands before calling an iterative solver
             0 MiB given to the printing process from OS
            50 MiB allocation reported by mallinfo(arena+hblkhd)
        115433 MiB available memory on the node where the printing process lives
------------------
     ethr =  8.62E-03,  avg # of iterations =  2.5

     negative rho (up, down):  1.602E-02 1.240E-02

     total cpu time spent up to now is      164.1 secs

     total energy              =  -10513.05471875 Ry
     estimated scf accuracy    <      51.24163174 Ry

     total magnetization       =     1.35 Bohr mag/cell
     absolute magnetization    =     5.58 Bohr mag/cell

     iteration #  5     ecut=    40.00 Ry     beta= 0.10
     Davidson diagonalization with overlap

---- Real-time Memory Report at c_bands before calling an iterative solver
             0 MiB given to the printing process from OS
            50 MiB allocation reported by mallinfo(arena+hblkhd)
        115427 MiB available memory on the node where the printing process lives
------------------
     ethr =  2.83E-03,  avg # of iterations =  2.0

     negative rho (up, down):  1.308E-02 1.077E-02

     total cpu time spent up to now is      184.2 secs

     total energy              =  -10511.60773705 Ry
     estimated scf accuracy    <      50.72046788 Ry

     total magnetization       =     0.72 Bohr mag/cell
     absolute magnetization    =     5.07 Bohr mag/cell

     iteration #  6     ecut=    40.00 Ry     beta= 0.10
     Davidson diagonalization with overlap

---- Real-time Memory Report at c_bands before calling an iterative solver
             0 MiB given to the printing process from OS
            50 MiB allocation reported by mallinfo(arena+hblkhd)
        114001 MiB available memory on the node where the printing process lives
------------------
     ethr =  2.80E-03,  avg # of iterations =  1.0

     negative rho (up, down):  8.099E-03 6.583E-03

     total cpu time spent up to now is      202.0 secs

     total energy              =  -10508.56886906 Ry
     estimated scf accuracy    <      45.16785051 Ry

     total magnetization       =     1.45 Bohr mag/cell
     absolute magnetization    =     5.77 Bohr mag/cell

     iteration #  7     ecut=    40.00 Ry     beta= 0.10
     Davidson diagonalization with overlap

---- Real-time Memory Report at c_bands before calling an iterative solver
             0 MiB given to the printing process from OS
            50 MiB allocation reported by mallinfo(arena+hblkhd)
        112979 MiB available memory on the node where the printing process lives
------------------
     ethr =  2.50E-03,  avg # of iterations =  2.0

     negative rho (up, down):  6.009E-03 3.200E-03

     total cpu time spent up to now is      222.2 secs

     total energy              =  -10499.98385051 Ry
     estimated scf accuracy    <      33.92062071 Ry

     total magnetization       =     1.53 Bohr mag/cell
     absolute magnetization    =     6.21 Bohr mag/cell

     iteration #  8     ecut=    40.00 Ry     beta= 0.10
     Davidson diagonalization with overlap

---- Real-time Memory Report at c_bands before calling an iterative solver
             0 MiB given to the printing process from OS
            50 MiB allocation reported by mallinfo(arena+hblkhd)
        112921 MiB available memory on the node where the printing process lives
------------------
     ethr =  1.87E-03,  avg # of iterations =  2.5

     negative rho (up, down):  1.388E-02 5.889E-03

     total cpu time spent up to now is      243.2 secs

     total energy              =  -10500.28655265 Ry
     estimated scf accuracy    <      11.88903482 Ry

     total magnetization       =     3.86 Bohr mag/cell
     absolute magnetization    =     6.91 Bohr mag/cell

     iteration #  9     ecut=    40.00 Ry     beta= 0.10
     Davidson diagonalization with overlap

---- Real-time Memory Report at c_bands before calling an iterative solver
             0 MiB given to the printing process from OS
            50 MiB allocation reported by mallinfo(arena+hblkhd)
        112913 MiB available memory on the node where the printing process lives
------------------
     ethr =  6.57E-04,  avg # of iterations =  7.0

     negative rho (up, down):  1.088E-02 4.328E-03

     total cpu time spent up to now is      265.7 secs

     total energy              =  -10504.69821913 Ry
     estimated scf accuracy    <      30.25676595 Ry

     total magnetization       =     2.57 Bohr mag/cell
     absolute magnetization    =     6.17 Bohr mag/cell

     iteration # 10     ecut=    40.00 Ry     beta= 0.10
     Davidson diagonalization with overlap

---- Real-time Memory Report at c_bands before calling an iterative solver
             0 MiB given to the printing process from OS
            50 MiB allocation reported by mallinfo(arena+hblkhd)
        112814 MiB available memory on the node where the printing process lives
------------------
     c_bands:  1 eigenvalues not converged
     ethr =  6.57E-04,  avg # of iterations = 11.5

     negative rho (up, down):  9.857E-03 3.867E-03

     total cpu time spent up to now is      290.3 secs

     total energy              =  -10505.06512461 Ry
     estimated scf accuracy    <      37.44720377 Ry

     total magnetization       =     2.51 Bohr mag/cell
     absolute magnetization    =     6.15 Bohr mag/cell

     iteration # 11     ecut=    40.00 Ry     beta= 0.10
     Davidson diagonalization with overlap

---- Real-time Memory Report at c_bands before calling an iterative solver
             0 MiB given to the printing process from OS
            50 MiB allocation reported by mallinfo(arena+hblkhd)
        112231 MiB available memory on the node where the printing process lives
------------------
     ethr =  6.57E-04,  avg # of iterations =  2.0

     negative rho (up, down):  1.124E-02 4.803E-03

     total cpu time spent up to now is      310.5 secs

     total energy              =  -10499.78272297 Ry
     estimated scf accuracy    <      37.43259132 Ry

     total magnetization       =     2.34 Bohr mag/cell
     absolute magnetization    =     6.27 Bohr mag/cell

     iteration # 12     ecut=    40.00 Ry     beta= 0.10
     Davidson diagonalization with overlap

---- Real-time Memory Report at c_bands before calling an iterative solver
             0 MiB given to the printing process from OS
            50 MiB allocation reported by mallinfo(arena+hblkhd)
        115405 MiB available memory on the node where the printing process lives
------------------
     ethr =  6.57E-04,  avg # of iterations =  8.0

     negative rho (up, down):  9.282E-03 4.003E-03

     total cpu time spent up to now is      334.2 secs

     total energy              =  -10501.46908536 Ry
     estimated scf accuracy    <       5.95249998 Ry

     total magnetization       =     4.11 Bohr mag/cell
     absolute magnetization    =     7.94 Bohr mag/cell

     iteration # 13     ecut=    40.00 Ry     beta= 0.10
     Davidson diagonalization with overlap

---- Real-time Memory Report at c_bands before calling an iterative solver
             0 MiB given to the printing process from OS
            50 MiB allocation reported by mallinfo(arena+hblkhd)
        112283 MiB available memory on the node where the printing process lives
------------------
     ethr =  3.29E-04,  avg # of iterations =  2.5

     negative rho (up, down):  1.117E-02 4.873E-03

     total cpu time spent up to now is      354.6 secs

     total energy              =  -10501.46797691 Ry
     estimated scf accuracy    <       9.21846676 Ry

     total magnetization       =     4.49 Bohr mag/cell
     absolute magnetization    =     7.22 Bohr mag/cell

     iteration # 14     ecut=    40.00 Ry     beta= 0.10
     Davidson diagonalization with overlap

---- Real-time Memory Report at c_bands before calling an iterative solver
             0 MiB given to the printing process from OS
            50 MiB allocation reported by mallinfo(arena+hblkhd)
        112240 MiB available memory on the node where the printing process lives
------------------
     ethr =  3.29E-04,  avg # of iterations =  1.0

     negative rho (up, down):  9.976E-03 4.390E-03

     total cpu time spent up to now is      372.5 secs

     total energy              =  -10501.38538706 Ry
     estimated scf accuracy    <       8.35735843 Ry

     total magnetization       =     4.63 Bohr mag/cell
     absolute magnetization    =     8.07 Bohr mag/cell

     iteration # 15     ecut=    40.00 Ry     beta= 0.10
     Davidson diagonalization with overlap

---- Real-time Memory Report at c_bands before calling an iterative solver
             0 MiB given to the printing process from OS
            50 MiB allocation reported by mallinfo(arena+hblkhd)
        112223 MiB available memory on the node where the printing process lives
------------------
     ethr =  3.29E-04,  avg # of iterations =  1.0

     negative rho (up, down):  1.753E-03 8.934E-04

     total cpu time spent up to now is      390.5 secs

     total energy              =  -10501.81358122 Ry
     estimated scf accuracy    <       7.94522997 Ry

     total magnetization       =     4.58 Bohr mag/cell
     absolute magnetization    =     8.02 Bohr mag/cell

     iteration # 16     ecut=    40.00 Ry     beta= 0.10
     Davidson diagonalization with overlap

---- Real-time Memory Report at c_bands before calling an iterative solver
             0 MiB given to the printing process from OS
            50 MiB allocation reported by mallinfo(arena+hblkhd)
        115404 MiB available memory on the node where the printing process lives
------------------
     ethr =  3.29E-04,  avg # of iterations =  2.0

     negative rho (up, down):  1.977E-03 9.790E-04

     total cpu time spent up to now is      411.0 secs

     total energy              =  -10501.47184857 Ry
     estimated scf accuracy    <      10.35986589 Ry

     total magnetization       =     1.47 Bohr mag/cell
     absolute magnetization    =     5.44 Bohr mag/cell

     iteration # 17     ecut=    40.00 Ry     beta= 0.10
     Davidson diagonalization with overlap

---- Real-time Memory Report at c_bands before calling an iterative solver
             0 MiB given to the printing process from OS
            50 MiB allocation reported by mallinfo(arena+hblkhd)
        115402 MiB available memory on the node where the printing process lives
------------------
     ethr =  3.29E-04,  avg # of iterations =  2.0

     negative rho (up, down):  1.868E-03 9.279E-04

     total cpu time spent up to now is      431.3 secs

     total energy              =  -10501.43797051 Ry
     estimated scf accuracy    <       8.03114251 Ry

     total magnetization       =     1.72 Bohr mag/cell
     absolute magnetization    =     7.00 Bohr mag/cell

     iteration # 18     ecut=    40.00 Ry     beta= 0.10
     Davidson diagonalization with overlap

---- Real-time Memory Report at c_bands before calling an iterative solver
             0 MiB given to the printing process from OS
            50 MiB allocation reported by mallinfo(arena+hblkhd)
        112291 MiB available memory on the node where the printing process lives
------------------
     ethr =  3.29E-04,  avg # of iterations =  1.0

     negative rho (up, down):  1.441E-03 7.470E-04

     total cpu time spent up to now is      449.3 secs

     total energy              =  -10500.95815159 Ry
     estimated scf accuracy    <       8.02961951 Ry

     total magnetization       =     0.98 Bohr mag/cell
     absolute magnetization    =     6.84 Bohr mag/cell

     iteration # 19     ecut=    40.00 Ry     beta= 0.10
     Davidson diagonalization with overlap

---- Real-time Memory Report at c_bands before calling an iterative solver
             0 MiB given to the printing process from OS
            50 MiB allocation reported by mallinfo(arena+hblkhd)
        112272 MiB available memory on the node where the printing process lives
------------------
     ethr =  3.29E-04,  avg # of iterations =  2.0

     negative rho (up, down):  1.631E-03 8.009E-04

     total cpu time spent up to now is      469.4 secs

     total energy              =  -10501.07202234 Ry
     estimated scf accuracy    <       4.29183319 Ry

     total magnetization       =     2.71 Bohr mag/cell
     absolute magnetization    =     8.10 Bohr mag/cell

     iteration # 20     ecut=    40.00 Ry     beta= 0.10
     Davidson diagonalization with overlap

---- Real-time Memory Report at c_bands before calling an iterative solver
             0 MiB given to the printing process from OS
            50 MiB allocation reported by mallinfo(arena+hblkhd)
        112260 MiB available memory on the node where the printing process lives
------------------
     ethr =  2.37E-04,  avg # of iterations =  1.0

     negative rho (up, down):  3.979E-03 1.859E-03

     total cpu time spent up to now is      487.3 secs

     total energy              =  -10500.59552897 Ry
     estimated scf accuracy    <       4.25560026 Ry

     total magnetization       =     2.72 Bohr mag/cell
     absolute magnetization    =     7.57 Bohr mag/cell

     iteration # 21     ecut=    40.00 Ry     beta= 0.10
     Davidson diagonalization with overlap

---- Real-time Memory Report at c_bands before calling an iterative solver
             0 MiB given to the printing process from OS
            50 MiB allocation reported by mallinfo(arena+hblkhd)
        114540 MiB available memory on the node where the printing process lives
------------------
     ethr =  2.35E-04,  avg # of iterations =  2.0

     negative rho (up, down):  1.409E-03 7.057E-04

     total cpu time spent up to now is      507.9 secs

     total energy              =  -10499.96561796 Ry
     estimated scf accuracy    <      19.40201164 Ry

     total magnetization       =     4.35 Bohr mag/cell
     absolute magnetization    =     8.74 Bohr mag/cell

     iteration # 22     ecut=    40.00 Ry     beta= 0.10
     Davidson diagonalization with overlap

---- Real-time Memory Report at c_bands before calling an iterative solver
             0 MiB given to the printing process from OS
            50 MiB allocation reported by mallinfo(arena+hblkhd)
        115410 MiB available memory on the node where the printing process lives
------------------
     ethr =  2.35E-04,  avg # of iterations =  3.5

     negative rho (up, down):  1.187E-04 1.148E-04

     total cpu time spent up to now is      528.9 secs

     total energy              =  -10501.05123004 Ry
     estimated scf accuracy    <       5.38843828 Ry

     total magnetization       =     2.78 Bohr mag/cell
     absolute magnetization    =     7.28 Bohr mag/cell

     iteration # 23     ecut=    40.00 Ry     beta= 0.10
     Davidson diagonalization with overlap

---- Real-time Memory Report at c_bands before calling an iterative solver
             0 MiB given to the printing process from OS
            50 MiB allocation reported by mallinfo(arena+hblkhd)
        115400 MiB available memory on the node where the printing process lives
------------------
     ethr =  2.35E-04,  avg # of iterations =  1.0

     negative rho (up, down):  7.737E-05 9.387E-05

     total cpu time spent up to now is      547.0 secs

     total energy              =  -10500.98900715 Ry
     estimated scf accuracy    <       4.44334553 Ry

     total magnetization       =     2.51 Bohr mag/cell
     absolute magnetization    =     6.60 Bohr mag/cell

     iteration # 24     ecut=    40.00 Ry     beta= 0.10
     Davidson diagonalization with overlap

---- Real-time Memory Report at c_bands before calling an iterative solver
             0 MiB given to the printing process from OS
            50 MiB allocation reported by mallinfo(arena+hblkhd)
        112284 MiB available memory on the node where the printing process lives
------------------
     ethr =  2.35E-04,  avg # of iterations =  1.0

     negative rho (up, down):  1.851E-04 1.509E-04

     total cpu time spent up to now is      565.1 secs

     total energy              =  -10500.99134300 Ry
     estimated scf accuracy    <       3.22343147 Ry

     total magnetization       =     2.42 Bohr mag/cell
     absolute magnetization    =     6.44 Bohr mag/cell

     iteration # 25     ecut=    40.00 Ry     beta= 0.10
     Davidson diagonalization with overlap

---- Real-time Memory Report at c_bands before calling an iterative solver
             0 MiB given to the printing process from OS
            50 MiB allocation reported by mallinfo(arena+hblkhd)
        112226 MiB available memory on the node where the printing process lives
------------------
     ethr =  1.78E-04,  avg # of iterations =  1.5

     negative rho (up, down):  1.120E-03 5.551E-04

     total cpu time spent up to now is      584.2 secs

     total energy              =  -10501.11866971 Ry
     estimated scf accuracy    <       2.89589817 Ry

     total magnetization       =     2.72 Bohr mag/cell
     absolute magnetization    =     6.47 Bohr mag/cell

     iteration # 26     ecut=    40.00 Ry     beta= 0.10
     Davidson diagonalization with overlap

---- Real-time Memory Report at c_bands before calling an iterative solver
             0 MiB given to the printing process from OS
            50 MiB allocation reported by mallinfo(arena+hblkhd)
        112227 MiB available memory on the node where the printing process lives
------------------
     ethr =  1.60E-04,  avg # of iterations =  1.5

     negative rho (up, down):  1.739E-03 7.962E-04

     total cpu time spent up to now is      603.3 secs

     total energy              =  -10500.96928426 Ry
     estimated scf accuracy    <       5.34467921 Ry

     total magnetization       =     2.73 Bohr mag/cell
     absolute magnetization    =     6.66 Bohr mag/cell

     iteration # 27     ecut=    40.00 Ry     beta= 0.10
     Davidson diagonalization with overlap

---- Real-time Memory Report at c_bands before calling an iterative solver
             0 MiB given to the printing process from OS
            50 MiB allocation reported by mallinfo(arena+hblkhd)
        112207 MiB available memory on the node where the printing process lives
------------------
     ethr =  1.60E-04,  avg # of iterations =  2.5

     negative rho (up, down):  9.591E-05 1.077E-04

     total cpu time spent up to now is      623.8 secs

     total energy              =  -10501.06860762 Ry
     estimated scf accuracy    <       3.08871796 Ry

     total magnetization       =     2.53 Bohr mag/cell
     absolute magnetization    =     6.58 Bohr mag/cell

     iteration # 28     ecut=    40.00 Ry     beta= 0.10
     Davidson diagonalization with overlap

---- Real-time Memory Report at c_bands before calling an iterative solver
             0 MiB given to the printing process from OS
            50 MiB allocation reported by mallinfo(arena+hblkhd)
        114688 MiB available memory on the node where the printing process lives
------------------
     ethr =  1.60E-04,  avg # of iterations =  2.0

     negative rho (up, down):  1.470E-04 7.273E-05

     total cpu time spent up to now is      643.8 secs

     total energy              =  -10501.20017426 Ry
     estimated scf accuracy    <       5.15374347 Ry

     total magnetization       =     1.88 Bohr mag/cell
     absolute magnetization    =     6.12 Bohr mag/cell

     iteration # 29     ecut=    40.00 Ry     beta= 0.10
     Davidson diagonalization with overlap

---- Real-time Memory Report at c_bands before calling an iterative solver
             0 MiB given to the printing process from OS
            50 MiB allocation reported by mallinfo(arena+hblkhd)
        115410 MiB available memory on the node where the printing process lives
------------------
     ethr =  1.60E-04,  avg # of iterations =  2.0

     negative rho (up, down):  7.737E-04 1.796E-03

     total cpu time spent up to now is      664.1 secs

     total energy              =  -10501.18900188 Ry
     estimated scf accuracy    <       6.44507515 Ry

     total magnetization       =     1.33 Bohr mag/cell
     absolute magnetization    =     6.48 Bohr mag/cell

     iteration # 30     ecut=    40.00 Ry     beta= 0.10
     Davidson diagonalization with overlap

---- Real-time Memory Report at c_bands before calling an iterative solver
             0 MiB given to the printing process from OS
            50 MiB allocation reported by mallinfo(arena+hblkhd)
        115398 MiB available memory on the node where the printing process lives
------------------
     ethr =  1.60E-04,  avg # of iterations =  1.5

     negative rho (up, down):  1.465E-03 5.512E-04

     total cpu time spent up to now is      683.1 secs

     total energy              =  -10500.54248530 Ry
     estimated scf accuracy    <       6.95113952 Ry

     total magnetization       =     0.72 Bohr mag/cell
     absolute magnetization    =     5.97 Bohr mag/cell

     iteration # 31     ecut=    40.00 Ry     beta= 0.10
     Davidson diagonalization with overlap

---- Real-time Memory Report at c_bands before calling an iterative solver
             0 MiB given to the printing process from OS
            50 MiB allocation reported by mallinfo(arena+hblkhd)
        112287 MiB available memory on the node where the printing process lives
------------------
     ethr =  1.60E-04,  avg # of iterations =  2.5

     negative rho (up, down):  8.573E-04 3.129E-04

     total cpu time spent up to now is      703.9 secs

     total energy              =  -10500.49486778 Ry
     estimated scf accuracy    <       9.03086617 Ry

     total magnetization       =     3.53 Bohr mag/cell
     absolute magnetization    =     7.70 Bohr mag/cell

     iteration # 32     ecut=    40.00 Ry     beta= 0.10
     Davidson diagonalization with overlap

---- Real-time Memory Report at c_bands before calling an iterative solver
             0 MiB given to the printing process from OS
            50 MiB allocation reported by mallinfo(arena+hblkhd)
        112263 MiB available memory on the node where the printing process lives
------------------
     ethr =  1.60E-04,  avg # of iterations =  2.0

     negative rho (up, down):  4.357E-04 1.615E-04

     total cpu time spent up to now is      724.1 secs

     total energy              =  -10501.12061205 Ry
     estimated scf accuracy    <       4.84194180 Ry

     total magnetization       =     2.70 Bohr mag/cell
     absolute magnetization    =     6.26 Bohr mag/cell

     iteration # 33     ecut=    40.00 Ry     beta= 0.10
     Davidson diagonalization with overlap

---- Real-time Memory Report at c_bands before calling an iterative solver
             0 MiB given to the printing process from OS
            50 MiB allocation reported by mallinfo(arena+hblkhd)
        112214 MiB available memory on the node where the printing process lives
------------------
     ethr =  1.60E-04,  avg # of iterations =  2.0

     negative rho (up, down):  1.336E-03 5.399E-04

     total cpu time spent up to now is      743.5 secs

     total energy              =  -10501.10967841 Ry
     estimated scf accuracy    <       4.97997201 Ry

     total magnetization       =     3.24 Bohr mag/cell
     absolute magnetization    =     6.09 Bohr mag/cell

     iteration # 34     ecut=    40.00 Ry     beta= 0.10
     Davidson diagonalization with overlap

---- Real-time Memory Report at c_bands before calling an iterative solver
             0 MiB given to the printing process from OS
            50 MiB allocation reported by mallinfo(arena+hblkhd)
        112202 MiB available memory on the node where the printing process lives
------------------
     ethr =  1.60E-04,  avg # of iterations =  1.0

     negative rho (up, down):  1.044E-03 4.035E-04

     total cpu time spent up to now is      761.6 secs

     total energy              =  -10501.12146667 Ry
     estimated scf accuracy    <       4.97674091 Ry

     total magnetization       =     3.30 Bohr mag/cell
     absolute magnetization    =     6.09 Bohr mag/cell

     iteration # 35     ecut=    40.00 Ry     beta= 0.10
     Davidson diagonalization with overlap

---- Real-time Memory Report at c_bands before calling an iterative solver
             0 MiB given to the printing process from OS
            50 MiB allocation reported by mallinfo(arena+hblkhd)
        114524 MiB available memory on the node where the printing process lives
------------------
     ethr =  1.60E-04,  avg # of iterations =  2.0

     negative rho (up, down):  1.442E-03 5.592E-04

     total cpu time spent up to now is      780.9 secs

     total energy              =  -10501.12877214 Ry
     estimated scf accuracy    <       5.08767490 Ry

     total magnetization       =     2.91 Bohr mag/cell
     absolute magnetization    =     6.03 Bohr mag/cell

     iteration # 36     ecut=    40.00 Ry     beta= 0.10
     Davidson diagonalization with overlap

---- Real-time Memory Report at c_bands before calling an iterative solver
             0 MiB given to the printing process from OS
            50 MiB allocation reported by mallinfo(arena+hblkhd)
        115401 MiB available memory on the node where the printing process lives
------------------
     ethr =  1.60E-04,  avg # of iterations =  1.5

     negative rho (up, down):  5.820E-04 2.104E-04

     total cpu time spent up to now is      799.9 secs

     total energy              =  -10501.06433641 Ry
     estimated scf accuracy    <       5.21039224 Ry

     total magnetization       =     2.59 Bohr mag/cell
     absolute magnetization    =     6.10 Bohr mag/cell

     iteration # 37     ecut=    40.00 Ry     beta= 0.10
     Davidson diagonalization with overlap

---- Real-time Memory Report at c_bands before calling an iterative solver
             0 MiB given to the printing process from OS
            50 MiB allocation reported by mallinfo(arena+hblkhd)
        115398 MiB available memory on the node where the printing process lives
------------------
     ethr =  1.60E-04,  avg # of iterations =  1.5

     negative rho (up, down):  8.645E-04 3.442E-04

     total cpu time spent up to now is      819.0 secs

     total energy              =  -10501.10143362 Ry
     estimated scf accuracy    <       4.24190471 Ry

     total magnetization       =     2.19 Bohr mag/cell
     absolute magnetization    =     6.36 Bohr mag/cell

     iteration # 38     ecut=    40.00 Ry     beta= 0.10
     Davidson diagonalization with overlap

---- Real-time Memory Report at c_bands before calling an iterative solver
             0 MiB given to the printing process from OS
            50 MiB allocation reported by mallinfo(arena+hblkhd)
        112284 MiB available memory on the node where the printing process lives
------------------
     ethr =  1.60E-04,  avg # of iterations =  1.5

     negative rho (up, down):  1.968E-03 7.852E-04

     total cpu time spent up to now is      838.1 secs

     total energy              =  -10501.05583818 Ry
     estimated scf accuracy    <       5.37873035 Ry

     total magnetization       =     3.44 Bohr mag/cell
     absolute magnetization    =     5.95 Bohr mag/cell

     iteration # 39     ecut=    40.00 Ry     beta= 0.10
     Davidson diagonalization with overlap

---- Real-time Memory Report at c_bands before calling an iterative solver
             0 MiB given to the printing process from OS
            50 MiB allocation reported by mallinfo(arena+hblkhd)
        112273 MiB available memory on the node where the printing process lives
------------------
     ethr =  1.60E-04,  avg # of iterations =  2.0

     negative rho (up, down):  8.700E-04 3.135E-04

     total cpu time spent up to now is      857.2 secs

     total energy              =  -10501.13700692 Ry
     estimated scf accuracy    <       4.60044032 Ry

     total magnetization       =     2.41 Bohr mag/cell
     absolute magnetization    =     5.88 Bohr mag/cell

     iteration # 40     ecut=    40.00 Ry     beta= 0.10
     Davidson diagonalization with overlap

---- Real-time Memory Report at c_bands before calling an iterative solver
             0 MiB given to the printing process from OS
            50 MiB allocation reported by mallinfo(arena+hblkhd)
        112253 MiB available memory on the node where the printing process lives
------------------
     ethr =  1.60E-04,  avg # of iterations =  2.0

     negative rho (up, down):  1.895E-04 1.697E-04

     total cpu time spent up to now is      876.6 secs

     total energy              =  -10500.54187194 Ry
     estimated scf accuracy    <       5.38574034 Ry

     total magnetization       =     2.03 Bohr mag/cell
     absolute magnetization    =     6.18 Bohr mag/cell

     iteration # 41     ecut=    40.00 Ry     beta= 0.10
     Davidson diagonalization with overlap

---- Real-time Memory Report at c_bands before calling an iterative solver
             0 MiB given to the printing process from OS
            50 MiB allocation reported by mallinfo(arena+hblkhd)
        112238 MiB available memory on the node where the printing process lives
------------------
     ethr =  1.60E-04,  avg # of iterations =  2.5

     negative rho (up, down):  1.195E-04 6.303E-05

     total cpu time spent up to now is      897.6 secs

     total energy              =  -10499.97254771 Ry
     estimated scf accuracy    <      14.73691383 Ry

     total magnetization       =     5.02 Bohr mag/cell
     absolute magnetization    =     8.31 Bohr mag/cell

     iteration # 42     ecut=    40.00 Ry     beta= 0.10
     Davidson diagonalization with overlap

---- Real-time Memory Report at c_bands before calling an iterative solver
             0 MiB given to the printing process from OS
            50 MiB allocation reported by mallinfo(arena+hblkhd)
        112194 MiB available memory on the node where the printing process lives
------------------
     ethr =  1.60E-04,  avg # of iterations =  3.0

     negative rho (up, down):  3.295E-04 1.794E-03

     total cpu time spent up to now is      918.4 secs

     total energy              =  -10501.20977856 Ry
     estimated scf accuracy    <       5.81139928 Ry

     total magnetization       =     4.28 Bohr mag/cell
     absolute magnetization    =     6.54 Bohr mag/cell

     iteration # 43     ecut=    40.00 Ry     beta= 0.10
     Davidson diagonalization with overlap

---- Real-time Memory Report at c_bands before calling an iterative solver
             0 MiB given to the printing process from OS
            50 MiB allocation reported by mallinfo(arena+hblkhd)
        113783 MiB available memory on the node where the printing process lives
------------------
     ethr =  1.60E-04,  avg # of iterations =  2.0

     negative rho (up, down):  1.912E-04 7.301E-04

     total cpu time spent up to now is      938.5 secs

     total energy              =  -10501.17195393 Ry
     estimated scf accuracy    <       6.66971459 Ry

     total magnetization       =     4.39 Bohr mag/cell
     absolute magnetization    =     6.64 Bohr mag/cell

     iteration # 44     ecut=    40.00 Ry     beta= 0.10
     Davidson diagonalization with overlap

---- Real-time Memory Report at c_bands before calling an iterative solver
             0 MiB given to the printing process from OS
            50 MiB allocation reported by mallinfo(arena+hblkhd)
        115403 MiB available memory on the node where the printing process lives
------------------
     ethr =  1.60E-04,  avg # of iterations =  1.0

     negative rho (up, down):  1.099E-03 2.841E-03

     total cpu time spent up to now is      956.5 secs

     total energy              =  -10501.26490184 Ry
     estimated scf accuracy    <       6.24120006 Ry

     total magnetization       =     4.51 Bohr mag/cell
     absolute magnetization    =     6.75 Bohr mag/cell

     iteration # 45     ecut=    40.00 Ry     beta= 0.10
     Davidson diagonalization with overlap

---- Real-time Memory Report at c_bands before calling an iterative solver
             0 MiB given to the printing process from OS
            50 MiB allocation reported by mallinfo(arena+hblkhd)
        113526 MiB available memory on the node where the printing process lives
------------------
     ethr =  1.60E-04,  avg # of iterations =  1.5

     negative rho (up, down):  2.274E-03 5.024E-03

     total cpu time spent up to now is      975.5 secs

     total energy              =  -10501.24443906 Ry
     estimated scf accuracy    <       7.09663625 Ry

     total magnetization       =     4.15 Bohr mag/cell
     absolute magnetization    =     6.43 Bohr mag/cell

     iteration # 46     ecut=    40.00 Ry     beta= 0.10
     Davidson diagonalization with overlap

---- Real-time Memory Report at c_bands before calling an iterative solver
             0 MiB given to the printing process from OS
            50 MiB allocation reported by mallinfo(arena+hblkhd)
[...]

 %%%%%%%%%%%%%%%%%%%%%%%%%%%%%%%%%%%%%%%%%%%%%%%%%%%%%%%%%%%%%%%%%%%%%%%%%%%%%%
     Error in routine DPOTRF (1):
     Cholesky failed in MatChol.
 %%%%%%%%%%%%%%%%%%%%%%%%%%%%%%%%%%%%%%%%%%%%%%%%%%%%%%%%%%%%%%%%%%%%%%%%%%%%%%

     stopping ...
 DPOTRF exited with INFO=          544

 %%%%%%%%%%%%%%%%%%%%%%%%%%%%%%%%%%%%%%%%%%%%%%%%%%%%%%%%%%%%%%%%%%%%%%%%%%%%%%
     Error in routine DPOTRF (1):
     Cholesky failed in MatChol.
 %%%%%%%%%%%%%%%%%%%%%%%%%%%%%%%%%%%%%%%%%%%%%%%%%%%%%%%%%%%%%%%%%%%%%%%%%%%%%%

     stopping ...
 DPOTRF exited with INFO=          544

 %%%%%%%%%%%%%%%%%%%%%%%%%%%%%%%%%%%%%%%%%%%%%%%%%%%%%%%%%%%%%%%%%%%%%%%%%%%%%%
     Error in routine DPOTRF (1):
     Cholesky failed in MatChol.
 %%%%%%%%%%%%%%%%%%%%%%%%%%%%%%%%%%%%%%%%%%%%%%%%%%%%%%%%%%%%%%%%%%%%%%%%%%%%%%

     stopping ...
 DPOTRF exited with INFO=          544

 %%%%%%%%%%%%%%%%%%%%%%%%%%%%%%%%%%%%%%%%%%%%%%%%%%%%%%%%%%%%%%%%%%%%%%%%%%%%%%
     Error in routine DPOTRF (1):
     Cholesky failed in MatChol.
 %%%%%%%%%%%%%%%%%%%%%%%%%%%%%%%%%%%%%%%%%%%%%%%%%%%%%%%%%%%%%%%%%%%%%%%%%%%%%%

     stopping ...
 DPOTRF exited with INFO=          544

 %%%%%%%%%%%%%%%%%%%%%%%%%%%%%%%%%%%%%%%%%%%%%%%%%%%%%%%%%%%%%%%%%%%%%%%%%%%%%%
     Error in routine DPOTRF (1):
     Cholesky failed in MatChol.
 %%%%%%%%%%%%%%%%%%%%%%%%%%%%%%%%%%%%%%%%%%%%%%%%%%%%%%%%%%%%%%%%%%%%%%%%%%%%%%

     stopping ...
 DPOTRF exited with INFO=          544

 %%%%%%%%%%%%%%%%%%%%%%%%%%%%%%%%%%%%%%%%%%%%%%%%%%%%%%%%%%%%%%%%%%%%%%%%%%%%%%
     Error in routine DPOTRF (1):
     Cholesky failed in MatChol.
 %%%%%%%%%%%%%%%%%%%%%%%%%%%%%%%%%%%%%%%%%%%%%%%%%%%%%%%%%%%%%%%%%%%%%%%%%%%%%%

     stopping ...
 DPOTRF exited with INFO=          544

 %%%%%%%%%%%%%%%%%%%%%%%%%%%%%%%%%%%%%%%%%%%%%%%%%%%%%%%%%%%%%%%%%%%%%%%%%%%%%%
     Error in routine DPOTRF (1):
     Cholesky failed in MatChol.
 %%%%%%%%%%%%%%%%%%%%%%%%%%%%%%%%%%%%%%%%%%%%%%%%%%%%%%%%%%%%%%%%%%%%%%%%%%%%%%

     stopping ...
 DPOTRF exited with INFO=          544

 %%%%%%%%%%%%%%%%%%%%%%%%%%%%%%%%%%%%%%%%%%%%%%%%%%%%%%%%%%%%%%%%%%%%%%%%%%%%%%
     Error in routine DPOTRF (1):
     Cholesky failed in MatChol.
 %%%%%%%%%%%%%%%%%%%%%%%%%%%%%%%%%%%%%%%%%%%%%%%%%%%%%%%%%%%%%%%%%%%%%%%%%%%%%%

     stopping ...
 DPOTRF exited with INFO=          544

 %%%%%%%%%%%%%%%%%%%%%%%%%%%%%%%%%%%%%%%%%%%%%%%%%%%%%%%%%%%%%%%%%%%%%%%%%%%%%%
     Error in routine DPOTRF (1):
     Cholesky failed in MatChol.
 %%%%%%%%%%%%%%%%%%%%%%%%%%%%%%%%%%%%%%%%%%%%%%%%%%%%%%%%%%%%%%%%%%%%%%%%%%%%%%

     stopping ...
 DPOTRF exited with INFO=          544

 %%%%%%%%%%%%%%%%%%%%%%%%%%%%%%%%%%%%%%%%%%%%%%%%%%%%%%%%%%%%%%%%%%%%%%%%%%%%%%
     Error in routine DPOTRF (1):
     Cholesky failed in MatChol.
 %%%%%%%%%%%%%%%%%%%%%%%%%%%%%%%%%%%%%%%%%%%%%%%%%%%%%%%%%%%%%%%%%%%%%%%%%%%%%%

     stopping ...
 DPOTRF exited with INFO=          544

 %%%%%%%%%%%%%%%%%%%%%%%%%%%%%%%%%%%%%%%%%%%%%%%%%%%%%%%%%%%%%%%%%%%%%%%%%%%%%%
     Error in routine DPOTRF (1):
     Cholesky failed in MatChol.
 %%%%%%%%%%%%%%%%%%%%%%%%%%%%%%%%%%%%%%%%%%%%%%%%%%%%%%%%%%%%%%%%%%%%%%%%%%%%%%

     stopping ...
 DPOTRF exited with INFO=          544

 %%%%%%%%%%%%%%%%%%%%%%%%%%%%%%%%%%%%%%%%%%%%%%%%%%%%%%%%%%%%%%%%%%%%%%%%%%%%%%
     Error in routine DPOTRF (1):
     Cholesky failed in MatChol.
 %%%%%%%%%%%%%%%%%%%%%%%%%%%%%%%%%%%%%%%%%%%%%%%%%%%%%%%%%%%%%%%%%%%%%%%%%%%%%%

     stopping ...
 DPOTRF exited with INFO=          544

 %%%%%%%%%%%%%%%%%%%%%%%%%%%%%%%%%%%%%%%%%%%%%%%%%%%%%%%%%%%%%%%%%%%%%%%%%%%%%%
     Error in routine DPOTRF (1):
     Cholesky failed in MatChol.
 %%%%%%%%%%%%%%%%%%%%%%%%%%%%%%%%%%%%%%%%%%%%%%%%%%%%%%%%%%%%%%%%%%%%%%%%%%%%%%

     stopping ...
 DPOTRF exited with INFO=          544

 %%%%%%%%%%%%%%%%%%%%%%%%%%%%%%%%%%%%%%%%%%%%%%%%%%%%%%%%%%%%%%%%%%%%%%%%%%%%%%
     Error in routine DPOTRF (1):
     Cholesky failed in MatChol.
 %%%%%%%%%%%%%%%%%%%%%%%%%%%%%%%%%%%%%%%%%%%%%%%%%%%%%%%%%%%%%%%%%%%%%%%%%%%%%%

     stopping ...
 DPOTRF exited with INFO=          544

 %%%%%%%%%%%%%%%%%%%%%%%%%%%%%%%%%%%%%%%%%%%%%%%%%%%%%%%%%%%%%%%%%%%%%%%%%%%%%%
     Error in routine DPOTRF (1):
     Cholesky failed in MatChol.
 %%%%%%%%%%%%%%%%%%%%%%%%%%%%%%%%%%%%%%%%%%%%%%%%%%%%%%%%%%%%%%%%%%%%%%%%%%%%%%

     stopping ...
 DPOTRF exited with INFO=          544

 %%%%%%%%%%%%%%%%%%%%%%%%%%%%%%%%%%%%%%%%%%%%%%%%%%%%%%%%%%%%%%%%%%%%%%%%%%%%%%
     Error in routine DPOTRF (1):
     Cholesky failed in MatChol.
 %%%%%%%%%%%%%%%%%%%%%%%%%%%%%%%%%%%%%%%%%%%%%%%%%%%%%%%%%%%%%%%%%%%%%%%%%%%%%%

     stopping ...
 DPOTRF exited with INFO=          544

 %%%%%%%%%%%%%%%%%%%%%%%%%%%%%%%%%%%%%%%%%%%%%%%%%%%%%%%%%%%%%%%%%%%%%%%%%%%%%%
     Error in routine DPOTRF (1):
     Cholesky failed in MatChol.
 %%%%%%%%%%%%%%%%%%%%%%%%%%%%%%%%%%%%%%%%%%%%%%%%%%%%%%%%%%%%%%%%%%%%%%%%%%%%%%

     stopping ...
 DPOTRF exited with INFO=          544

 %%%%%%%%%%%%%%%%%%%%%%%%%%%%%%%%%%%%%%%%%%%%%%%%%%%%%%%%%%%%%%%%%%%%%%%%%%%%%%
     Error in routine DPOTRF (1):
     Cholesky failed in MatChol.
 %%%%%%%%%%%%%%%%%%%%%%%%%%%%%%%%%%%%%%%%%%%%%%%%%%%%%%%%%%%%%%%%%%%%%%%%%%%%%%

     stopping ...
 DPOTRF exited with INFO=          544

 %%%%%%%%%%%%%%%%%%%%%%%%%%%%%%%%%%%%%%%%%%%%%%%%%%%%%%%%%%%%%%%%%%%%%%%%%%%%%%
     Error in routine DPOTRF (1):
     Cholesky failed in MatChol.
 %%%%%%%%%%%%%%%%%%%%%%%%%%%%%%%%%%%%%%%%%%%%%%%%%%%%%%%%%%%%%%%%%%%%%%%%%%%%%%

     stopping ...
 DPOTRF exited with INFO=          544

 %%%%%%%%%%%%%%%%%%%%%%%%%%%%%%%%%%%%%%%%%%%%%%%%%%%%%%%%%%%%%%%%%%%%%%%%%%%%%%
     Error in routine DPOTRF (1):
     Cholesky failed in MatChol.
 %%%%%%%%%%%%%%%%%%%%%%%%%%%%%%%%%%%%%%%%%%%%%%%%%%%%%%%%%%%%%%%%%%%%%%%%%%%%%%

     stopping ...
 DPOTRF exited with INFO=          544

 %%%%%%%%%%%%%%%%%%%%%%%%%%%%%%%%%%%%%%%%%%%%%%%%%%%%%%%%%%%%%%%%%%%%%%%%%%%%%%
     Error in routine DPOTRF (1):
     Cholesky failed in MatChol.
 %%%%%%%%%%%%%%%%%%%%%%%%%%%%%%%%%%%%%%%%%%%%%%%%%%%%%%%%%%%%%%%%%%%%%%%%%%%%%%

     stopping ...
 DPOTRF exited with INFO=          544

 %%%%%%%%%%%%%%%%%%%%%%%%%%%%%%%%%%%%%%%%%%%%%%%%%%%%%%%%%%%%%%%%%%%%%%%%%%%%%%
     Error in routine DPOTRF (1):
     Cholesky failed in MatChol.
 %%%%%%%%%%%%%%%%%%%%%%%%%%%%%%%%%%%%%%%%%%%%%%%%%%%%%%%%%%%%%%%%%%%%%%%%%%%%%%

     stopping ...
 DPOTRF exited with INFO=          544

 %%%%%%%%%%%%%%%%%%%%%%%%%%%%%%%%%%%%%%%%%%%%%%%%%%%%%%%%%%%%%%%%%%%%%%%%%%%%%%
     Error in routine DPOTRF (1):
     Cholesky failed in MatChol.
 %%%%%%%%%%%%%%%%%%%%%%%%%%%%%%%%%%%%%%%%%%%%%%%%%%%%%%%%%%%%%%%%%%%%%%%%%%%%%%

     stopping ...
 DPOTRF exited with INFO=          544

 %%%%%%%%%%%%%%%%%%%%%%%%%%%%%%%%%%%%%%%%%%%%%%%%%%%%%%%%%%%%%%%%%%%%%%%%%%%%%%
     Error in routine DPOTRF (1):
     Cholesky failed in MatChol.
 %%%%%%%%%%%%%%%%%%%%%%%%%%%%%%%%%%%%%%%%%%%%%%%%%%%%%%%%%%%%%%%%%%%%%%%%%%%%%%

     stopping ...
 DPOTRF exited with INFO=          544

 %%%%%%%%%%%%%%%%%%%%%%%%%%%%%%%%%%%%%%%%%%%%%%%%%%%%%%%%%%%%%%%%%%%%%%%%%%%%%%
     Error in routine DPOTRF (1):
     Cholesky failed in MatChol.
 %%%%%%%%%%%%%%%%%%%%%%%%%%%%%%%%%%%%%%%%%%%%%%%%%%%%%%%%%%%%%%%%%%%%%%%%%%%%%%

     stopping ...
 DPOTRF exited with INFO=          544

 %%%%%%%%%%%%%%%%%%%%%%%%%%%%%%%%%%%%%%%%%%%%%%%%%%%%%%%%%%%%%%%%%%%%%%%%%%%%%%
     Error in routine DPOTRF (1):
     Cholesky failed in MatChol.
 %%%%%%%%%%%%%%%%%%%%%%%%%%%%%%%%%%%%%%%%%%%%%%%%%%%%%%%%%%%%%%%%%%%%%%%%%%%%%%

     stopping ...
 DPOTRF exited with INFO=          544

 %%%%%%%%%%%%%%%%%%%%%%%%%%%%%%%%%%%%%%%%%%%%%%%%%%%%%%%%%%%%%%%%%%%%%%%%%%%%%%
     Error in routine DPOTRF (1):
     Cholesky failed in MatChol.
 %%%%%%%%%%%%%%%%%%%%%%%%%%%%%%%%%%%%%%%%%%%%%%%%%%%%%%%%%%%%%%%%%%%%%%%%%%%%%%

     stopping ...
 DPOTRF exited with INFO=          544

 %%%%%%%%%%%%%%%%%%%%%%%%%%%%%%%%%%%%%%%%%%%%%%%%%%%%%%%%%%%%%%%%%%%%%%%%%%%%%%
     Error in routine DPOTRF (1):
     Cholesky failed in MatChol.
 %%%%%%%%%%%%%%%%%%%%%%%%%%%%%%%%%%%%%%%%%%%%%%%%%%%%%%%%%%%%%%%%%%%%%%%%%%%%%%

     stopping ...
 DPOTRF exited with INFO=          544

 %%%%%%%%%%%%%%%%%%%%%%%%%%%%%%%%%%%%%%%%%%%%%%%%%%%%%%%%%%%%%%%%%%%%%%%%%%%%%%
     Error in routine DPOTRF (1):
     Cholesky failed in MatChol.
 %%%%%%%%%%%%%%%%%%%%%%%%%%%%%%%%%%%%%%%%%%%%%%%%%%%%%%%%%%%%%%%%%%%%%%%%%%%%%%

     stopping ...
 DPOTRF exited with INFO=          544

 %%%%%%%%%%%%%%%%%%%%%%%%%%%%%%%%%%%%%%%%%%%%%%%%%%%%%%%%%%%%%%%%%%%%%%%%%%%%%%
     Error in routine DPOTRF (1):
     Cholesky failed in MatChol.
 %%%%%%%%%%%%%%%%%%%%%%%%%%%%%%%%%%%%%%%%%%%%%%%%%%%%%%%%%%%%%%%%%%%%%%%%%%%%%%

     stopping ...
 DPOTRF exited with INFO=          544

 %%%%%%%%%%%%%%%%%%%%%%%%%%%%%%%%%%%%%%%%%%%%%%%%%%%%%%%%%%%%%%%%%%%%%%%%%%%%%%
     Error in routine DPOTRF (1):
     Cholesky failed in MatChol.
 %%%%%%%%%%%%%%%%%%%%%%%%%%%%%%%%%%%%%%%%%%%%%%%%%%%%%%%%%%%%%%%%%%%%%%%%%%%%%%

     stopping ...
 DPOTRF exited with INFO=          544

 %%%%%%%%%%%%%%%%%%%%%%%%%%%%%%%%%%%%%%%%%%%%%%%%%%%%%%%%%%%%%%%%%%%%%%%%%%%%%%
     Error in routine DPOTRF (1):
     Cholesky failed in MatChol.
 %%%%%%%%%%%%%%%%%%%%%%%%%%%%%%%%%%%%%%%%%%%%%%%%%%%%%%%%%%%%%%%%%%%%%%%%%%%%%%

     stopping ...
 DPOTRF exited with INFO=          544

 %%%%%%%%%%%%%%%%%%%%%%%%%%%%%%%%%%%%%%%%%%%%%%%%%%%%%%%%%%%%%%%%%%%%%%%%%%%%%%
     Error in routine DPOTRF (1):
     Cholesky failed in MatChol.
 %%%%%%%%%%%%%%%%%%%%%%%%%%%%%%%%%%%%%%%%%%%%%%%%%%%%%%%%%%%%%%%%%%%%%%%%%%%%%%

     stopping ...
 DPOTRF exited with INFO=          544

 %%%%%%%%%%%%%%%%%%%%%%%%%%%%%%%%%%%%%%%%%%%%%%%%%%%%%%%%%%%%%%%%%%%%%%%%%%%%%%
     Error in routine DPOTRF (1):
     Cholesky failed in MatChol.
 %%%%%%%%%%%%%%%%%%%%%%%%%%%%%%%%%%%%%%%%%%%%%%%%%%%%%%%%%%%%%%%%%%%%%%%%%%%%%%

     stopping ...
 DPOTRF exited with INFO=          544

 %%%%%%%%%%%%%%%%%%%%%%%%%%%%%%%%%%%%%%%%%%%%%%%%%%%%%%%%%%%%%%%%%%%%%%%%%%%%%%
     Error in routine DPOTRF (1):
     Cholesky failed in MatChol.
 %%%%%%%%%%%%%%%%%%%%%%%%%%%%%%%%%%%%%%%%%%%%%%%%%%%%%%%%%%%%%%%%%%%%%%%%%%%%%%

     stopping ...
 DPOTRF exited with INFO=          544

 %%%%%%%%%%%%%%%%%%%%%%%%%%%%%%%%%%%%%%%%%%%%%%%%%%%%%%%%%%%%%%%%%%%%%%%%%%%%%%
     Error in routine DPOTRF (1):
     Cholesky failed in MatChol.
 %%%%%%%%%%%%%%%%%%%%%%%%%%%%%%%%%%%%%%%%%%%%%%%%%%%%%%%%%%%%%%%%%%%%%%%%%%%%%%

     stopping ...
 DPOTRF exited with INFO=          544

 %%%%%%%%%%%%%%%%%%%%%%%%%%%%%%%%%%%%%%%%%%%%%%%%%%%%%%%%%%%%%%%%%%%%%%%%%%%%%%
     Error in routine DPOTRF (1):
     Cholesky failed in MatChol.
 %%%%%%%%%%%%%%%%%%%%%%%%%%%%%%%%%%%%%%%%%%%%%%%%%%%%%%%%%%%%%%%%%%%%%%%%%%%%%%

     stopping ...
 DPOTRF exited with INFO=          544

 %%%%%%%%%%%%%%%%%%%%%%%%%%%%%%%%%%%%%%%%%%%%%%%%%%%%%%%%%%%%%%%%%%%%%%%%%%%%%%
     Error in routine DPOTRF (1):
     Cholesky failed in MatChol.
 %%%%%%%%%%%%%%%%%%%%%%%%%%%%%%%%%%%%%%%%%%%%%%%%%%%%%%%%%%%%%%%%%%%%%%%%%%%%%%

     stopping ...
 DPOTRF exited with INFO=          544

 %%%%%%%%%%%%%%%%%%%%%%%%%%%%%%%%%%%%%%%%%%%%%%%%%%%%%%%%%%%%%%%%%%%%%%%%%%%%%%
     Error in routine DPOTRF (1):
     Cholesky failed in MatChol.
 %%%%%%%%%%%%%%%%%%%%%%%%%%%%%%%%%%%%%%%%%%%%%%%%%%%%%%%%%%%%%%%%%%%%%%%%%%%%%%

     stopping ...
 DPOTRF exited with INFO=          544

 %%%%%%%%%%%%%%%%%%%%%%%%%%%%%%%%%%%%%%%%%%%%%%%%%%%%%%%%%%%%%%%%%%%%%%%%%%%%%%
     Error in routine DPOTRF (1):
     Cholesky failed in MatChol.
 %%%%%%%%%%%%%%%%%%%%%%%%%%%%%%%%%%%%%%%%%%%%%%%%%%%%%%%%%%%%%%%%%%%%%%%%%%%%%%

     stopping ...
 DPOTRF exited with INFO=          544

 %%%%%%%%%%%%%%%%%%%%%%%%%%%%%%%%%%%%%%%%%%%%%%%%%%%%%%%%%%%%%%%%%%%%%%%%%%%%%%
     Error in routine DPOTRF (1):
     Cholesky failed in MatChol.
 %%%%%%%%%%%%%%%%%%%%%%%%%%%%%%%%%%%%%%%%%%%%%%%%%%%%%%%%%%%%%%%%%%%%%%%%%%%%%%

     stopping ...
 DPOTRF exited with INFO=          544

 %%%%%%%%%%%%%%%%%%%%%%%%%%%%%%%%%%%%%%%%%%%%%%%%%%%%%%%%%%%%%%%%%%%%%%%%%%%%%%
     Error in routine DPOTRF (1):
     Cholesky failed in MatChol.
 %%%%%%%%%%%%%%%%%%%%%%%%%%%%%%%%%%%%%%%%%%%%%%%%%%%%%%%%%%%%%%%%%%%%%%%%%%%%%%

     stopping ...
 DPOTRF exited with INFO=          544

 %%%%%%%%%%%%%%%%%%%%%%%%%%%%%%%%%%%%%%%%%%%%%%%%%%%%%%%%%%%%%%%%%%%%%%%%%%%%%%
     Error in routine DPOTRF (1):
     Cholesky failed in MatChol.
 %%%%%%%%%%%%%%%%%%%%%%%%%%%%%%%%%%%%%%%%%%%%%%%%%%%%%%%%%%%%%%%%%%%%%%%%%%%%%%

     stopping ...
 DPOTRF exited with INFO=          544

 %%%%%%%%%%%%%%%%%%%%%%%%%%%%%%%%%%%%%%%%%%%%%%%%%%%%%%%%%%%%%%%%%%%%%%%%%%%%%%
     Error in routine DPOTRF (1):
     Cholesky failed in MatChol.
 %%%%%%%%%%%%%%%%%%%%%%%%%%%%%%%%%%%%%%%%%%%%%%%%%%%%%%%%%%%%%%%%%%%%%%%%%%%%%%

     stopping ...
 DPOTRF exited with INFO=          544

 %%%%%%%%%%%%%%%%%%%%%%%%%%%%%%%%%%%%%%%%%%%%%%%%%%%%%%%%%%%%%%%%%%%%%%%%%%%%%%
     Error in routine DPOTRF (1):
     Cholesky failed in MatChol.
 %%%%%%%%%%%%%%%%%%%%%%%%%%%%%%%%%%%%%%%%%%%%%%%%%%%%%%%%%%%%%%%%%%%%%%%%%%%%%%

     stopping ...
 DPOTRF exited with INFO=          544

 %%%%%%%%%%%%%%%%%%%%%%%%%%%%%%%%%%%%%%%%%%%%%%%%%%%%%%%%%%%%%%%%%%%%%%%%%%%%%%
     Error in routine DPOTRF (1):
     Cholesky failed in MatChol.
 %%%%%%%%%%%%%%%%%%%%%%%%%%%%%%%%%%%%%%%%%%%%%%%%%%%%%%%%%%%%%%%%%%%%%%%%%%%%%%

     stopping ...
 DPOTRF exited with INFO=          544

 %%%%%%%%%%%%%%%%%%%%%%%%%%%%%%%%%%%%%%%%%%%%%%%%%%%%%%%%%%%%%%%%%%%%%%%%%%%%%%
     Error in routine DPOTRF (1):
     Cholesky failed in MatChol.
 %%%%%%%%%%%%%%%%%%%%%%%%%%%%%%%%%%%%%%%%%%%%%%%%%%%%%%%%%%%%%%%%%%%%%%%%%%%%%%

     stopping ...
 DPOTRF exited with INFO=          544

 %%%%%%%%%%%%%%%%%%%%%%%%%%%%%%%%%%%%%%%%%%%%%%%%%%%%%%%%%%%%%%%%%%%%%%%%%%%%%%
     Error in routine DPOTRF (1):
     Cholesky failed in MatChol.
 %%%%%%%%%%%%%%%%%%%%%%%%%%%%%%%%%%%%%%%%%%%%%%%%%%%%%%%%%%%%%%%%%%%%%%%%%%%%%%

     stopping ...
 DPOTRF exited with INFO=          544

 %%%%%%%%%%%%%%%%%%%%%%%%%%%%%%%%%%%%%%%%%%%%%%%%%%%%%%%%%%%%%%%%%%%%%%%%%%%%%%
     Error in routine DPOTRF (1):
     Cholesky failed in MatChol.
 %%%%%%%%%%%%%%%%%%%%%%%%%%%%%%%%%%%%%%%%%%%%%%%%%%%%%%%%%%%%%%%%%%%%%%%%%%%%%%

     stopping ...
 DPOTRF exited with INFO=          544

 %%%%%%%%%%%%%%%%%%%%%%%%%%%%%%%%%%%%%%%%%%%%%%%%%%%%%%%%%%%%%%%%%%%%%%%%%%%%%%
     Error in routine DPOTRF (1):
     Cholesky failed in MatChol.
 %%%%%%%%%%%%%%%%%%%%%%%%%%%%%%%%%%%%%%%%%%%%%%%%%%%%%%%%%%%%%%%%%%%%%%%%%%%%%%

     stopping ...
 DPOTRF exited with INFO=          544

 %%%%%%%%%%%%%%%%%%%%%%%%%%%%%%%%%%%%%%%%%%%%%%%%%%%%%%%%%%%%%%%%%%%%%%%%%%%%%%
     Error in routine DPOTRF (1):
     Cholesky failed in MatChol.
 %%%%%%%%%%%%%%%%%%%%%%%%%%%%%%%%%%%%%%%%%%%%%%%%%%%%%%%%%%%%%%%%%%%%%%%%%%%%%%

     stopping ...
 DPOTRF exited with INFO=          544

 %%%%%%%%%%%%%%%%%%%%%%%%%%%%%%%%%%%%%%%%%%%%%%%%%%%%%%%%%%%%%%%%%%%%%%%%%%%%%%
     Error in routine DPOTRF (1):
     Cholesky failed in MatChol.
 %%%%%%%%%%%%%%%%%%%%%%%%%%%%%%%%%%%%%%%%%%%%%%%%%%%%%%%%%%%%%%%%%%%%%%%%%%%%%%

     stopping ...
 DPOTRF exited with INFO=          544

 %%%%%%%%%%%%%%%%%%%%%%%%%%%%%%%%%%%%%%%%%%%%%%%%%%%%%%%%%%%%%%%%%%%%%%%%%%%%%%
     Error in routine DPOTRF (1):
     Cholesky failed in MatChol.
 %%%%%%%%%%%%%%%%%%%%%%%%%%%%%%%%%%%%%%%%%%%%%%%%%%%%%%%%%%%%%%%%%%%%%%%%%%%%%%

     stopping ...
 DPOTRF exited with INFO=          544

 %%%%%%%%%%%%%%%%%%%%%%%%%%%%%%%%%%%%%%%%%%%%%%%%%%%%%%%%%%%%%%%%%%%%%%%%%%%%%%
     Error in routine DPOTRF (1):
     Cholesky failed in MatChol.
 %%%%%%%%%%%%%%%%%%%%%%%%%%%%%%%%%%%%%%%%%%%%%%%%%%%%%%%%%%%%%%%%%%%%%%%%%%%%%%

     stopping ...
 DPOTRF exited with INFO=          544

 %%%%%%%%%%%%%%%%%%%%%%%%%%%%%%%%%%%%%%%%%%%%%%%%%%%%%%%%%%%%%%%%%%%%%%%%%%%%%%
     Error in routine DPOTRF (1):
     Cholesky failed in MatChol.
 %%%%%%%%%%%%%%%%%%%%%%%%%%%%%%%%%%%%%%%%%%%%%%%%%%%%%%%%%%%%%%%%%%%%%%%%%%%%%%

     stopping ...
 DPOTRF exited with INFO=          544

 %%%%%%%%%%%%%%%%%%%%%%%%%%%%%%%%%%%%%%%%%%%%%%%%%%%%%%%%%%%%%%%%%%%%%%%%%%%%%%
     Error in routine DPOTRF (1):
     Cholesky failed in MatChol.
 %%%%%%%%%%%%%%%%%%%%%%%%%%%%%%%%%%%%%%%%%%%%%%%%%%%%%%%%%%%%%%%%%%%%%%%%%%%%%%

     stopping ...
 DPOTRF exited with INFO=          544

 %%%%%%%%%%%%%%%%%%%%%%%%%%%%%%%%%%%%%%%%%%%%%%%%%%%%%%%%%%%%%%%%%%%%%%%%%%%%%%
     Error in routine DPOTRF (1):
     Cholesky failed in MatChol.
 %%%%%%%%%%%%%%%%%%%%%%%%%%%%%%%%%%%%%%%%%%%%%%%%%%%%%%%%%%%%%%%%%%%%%%%%%%%%%%

     stopping ...
 DPOTRF exited with INFO=          544

 %%%%%%%%%%%%%%%%%%%%%%%%%%%%%%%%%%%%%%%%%%%%%%%%%%%%%%%%%%%%%%%%%%%%%%%%%%%%%%
     Error in routine DPOTRF (1):
     Cholesky failed in MatChol.
 %%%%%%%%%%%%%%%%%%%%%%%%%%%%%%%%%%%%%%%%%%%%%%%%%%%%%%%%%%%%%%%%%%%%%%%%%%%%%%

     stopping ...
 DPOTRF exited with INFO=          544

 %%%%%%%%%%%%%%%%%%%%%%%%%%%%%%%%%%%%%%%%%%%%%%%%%%%%%%%%%%%%%%%%%%%%%%%%%%%%%%
     Error in routine DPOTRF (1):
     Cholesky failed in MatChol.
 %%%%%%%%%%%%%%%%%%%%%%%%%%%%%%%%%%%%%%%%%%%%%%%%%%%%%%%%%%%%%%%%%%%%%%%%%%%%%%

     stopping ...
 DPOTRF exited with INFO=          544

 %%%%%%%%%%%%%%%%%%%%%%%%%%%%%%%%%%%%%%%%%%%%%%%%%%%%%%%%%%%%%%%%%%%%%%%%%%%%%%
     Error in routine DPOTRF (1):
     Cholesky failed in MatChol.
 %%%%%%%%%%%%%%%%%%%%%%%%%%%%%%%%%%%%%%%%%%%%%%%%%%%%%%%%%%%%%%%%%%%%%%%%%%%%%%

     stopping ...
 DPOTRF exited with INFO=          544

 %%%%%%%%%%%%%%%%%%%%%%%%%%%%%%%%%%%%%%%%%%%%%%%%%%%%%%%%%%%%%%%%%%%%%%%%%%%%%%
     Error in routine DPOTRF (1):
     Cholesky failed in MatChol.
 %%%%%%%%%%%%%%%%%%%%%%%%%%%%%%%%%%%%%%%%%%%%%%%%%%%%%%%%%%%%%%%%%%%%%%%%%%%%%%

     stopping ...
 DPOTRF exited with INFO=          544

 %%%%%%%%%%%%%%%%%%%%%%%%%%%%%%%%%%%%%%%%%%%%%%%%%%%%%%%%%%%%%%%%%%%%%%%%%%%%%%
     Error in routine DPOTRF (1):
     Cholesky failed in MatChol.
 %%%%%%%%%%%%%%%%%%%%%%%%%%%%%%%%%%%%%%%%%%%%%%%%%%%%%%%%%%%%%%%%%%%%%%%%%%%%%%

     stopping ...
 DPOTRF exited with INFO=          544

 %%%%%%%%%%%%%%%%%%%%%%%%%%%%%%%%%%%%%%%%%%%%%%%%%%%%%%%%%%%%%%%%%%%%%%%%%%%%%%
     Error in routine DPOTRF (1):
     Cholesky failed in MatChol.
 %%%%%%%%%%%%%%%%%%%%%%%%%%%%%%%%%%%%%%%%%%%%%%%%%%%%%%%%%%%%%%%%%%%%%%%%%%%%%%

     stopping ...
 DPOTRF exited with INFO=          544

 %%%%%%%%%%%%%%%%%%%%%%%%%%%%%%%%%%%%%%%%%%%%%%%%%%%%%%%%%%%%%%%%%%%%%%%%%%%%%%
     Error in routine DPOTRF (1):
     Cholesky failed in MatChol.
 %%%%%%%%%%%%%%%%%%%%%%%%%%%%%%%%%%%%%%%%%%%%%%%%%%%%%%%%%%%%%%%%%%%%%%%%%%%%%%

     stopping ...
 DPOTRF exited with INFO=          544

 %%%%%%%%%%%%%%%%%%%%%%%%%%%%%%%%%%%%%%%%%%%%%%%%%%%%%%%%%%%%%%%%%%%%%%%%%%%%%%
     Error in routine DPOTRF (1):
     Cholesky failed in MatChol.
 %%%%%%%%%%%%%%%%%%%%%%%%%%%%%%%%%%%%%%%%%%%%%%%%%%%%%%%%%%%%%%%%%%%%%%%%%%%%%%

     stopping ...
 DPOTRF exited with INFO=          544

 %%%%%%%%%%%%%%%%%%%%%%%%%%%%%%%%%%%%%%%%%%%%%%%%%%%%%%%%%%%%%%%%%%%%%%%%%%%%%%
     Error in routine DPOTRF (1):
     Cholesky failed in MatChol.
 %%%%%%%%%%%%%%%%%%%%%%%%%%%%%%%%%%%%%%%%%%%%%%%%%%%%%%%%%%%%%%%%%%%%%%%%%%%%%%

     stopping ...
 DPOTRF exited with INFO=          544

 %%%%%%%%%%%%%%%%%%%%%%%%%%%%%%%%%%%%%%%%%%%%%%%%%%%%%%%%%%%%%%%%%%%%%%%%%%%%%%
     Error in routine DPOTRF (1):
     Cholesky failed in MatChol.
 %%%%%%%%%%%%%%%%%%%%%%%%%%%%%%%%%%%%%%%%%%%%%%%%%%%%%%%%%%%%%%%%%%%%%%%%%%%%%%

     stopping ...
 DPOTRF exited with INFO=          544

 %%%%%%%%%%%%%%%%%%%%%%%%%%%%%%%%%%%%%%%%%%%%%%%%%%%%%%%%%%%%%%%%%%%%%%%%%%%%%%
     Error in routine DPOTRF (1):
     Cholesky failed in MatChol.
 %%%%%%%%%%%%%%%%%%%%%%%%%%%%%%%%%%%%%%%%%%%%%%%%%%%%%%%%%%%%%%%%%%%%%%%%%%%%%%

     stopping ...
 DPOTRF exited with INFO=          544

 %%%%%%%%%%%%%%%%%%%%%%%%%%%%%%%%%%%%%%%%%%%%%%%%%%%%%%%%%%%%%%%%%%%%%%%%%%%%%%
     Error in routine DPOTRF (1):
     Cholesky failed in MatChol.
 %%%%%%%%%%%%%%%%%%%%%%%%%%%%%%%%%%%%%%%%%%%%%%%%%%%%%%%%%%%%%%%%%%%%%%%%%%%%%%

     stopping ...
 DPOTRF exited with INFO=          544

 %%%%%%%%%%%%%%%%%%%%%%%%%%%%%%%%%%%%%%%%%%%%%%%%%%%%%%%%%%%%%%%%%%%%%%%%%%%%%%
     Error in routine DPOTRF (1):
     Cholesky failed in MatChol.
 %%%%%%%%%%%%%%%%%%%%%%%%%%%%%%%%%%%%%%%%%%%%%%%%%%%%%%%%%%%%%%%%%%%%%%%%%%%%%%

     stopping ...
