
     Program PWSCF v.7.0 starts on 18Dec2024 at  7:13:12 

     This program is part of the open-source Quantum ESPRESSO suite
     for quantum simulation of materials; please cite
         "P. Giannozzi et al., J. Phys.:Condens. Matter 21 395502 (2009);
         "P. Giannozzi et al., J. Phys.:Condens. Matter 29 465901 (2017);
         "P. Giannozzi et al., J. Chem. Phys. 152 154105 (2020);
          URL http://www.quantum-espresso.org", 
     in publications or presentations arising from this work. More details at
     http://www.quantum-espresso.org/quote

     Parallel version (MPI & OpenMP), running on     288 processor cores
     Number of MPI processes:               144
     Threads/MPI process:                     2

     MPI processes distributed on     4 nodes
     R & G space division:  proc/nbgrp/npool/nimage =     144
     123877 MiB available memory on the printing compute node when the environment starts
 
     Reading input from pwnscf.in
Warning: card &IONS ignored
Warning: card / ignored

     Current dimensions of program PWSCF are:
     Max number of different atomic species (ntypx) = 10
     Max number of k-points (npk) =  40000
     Max angular momentum in pseudopotentials (lmaxx) =  4
     Message from routine input:
     WARNING: "startingwfc" set to atomic+random may spoil restart
     file O.pbe-n-kjpaw_psl.0.1.UPF: wavefunction(s)  2P renormalized
     file Ce.paw.z_12.atompaw.wentzcovitch.v1.2.upf: wavefunction(s)  6S 0P 5D 0D 4F 0F renormalized
     file C.pbe-n-kjpaw_psl.1.0.0.UPF: wavefunction(s)  2S 2P renormalized
     file Fe.pbe-spn-kjpaw_psl.0.2.1.UPF: wavefunction(s)  3D renormalized

     gamma-point specific algorithms are used

     Subspace diagonalization in iterative solution of the eigenvalue problem:
     one sub-group per band group will be used
     scalapack distributed-memory algorithm (size of sub-group: 12* 12 procs)

 
     Parallelization info
     --------------------
     sticks:   dense  smooth     PW     G-vecs:    dense   smooth      PW
     Min         293     146     36                63314    22382    2788
     Max         296     148     38                63338    22404    2818
     Sum       42361   21205   5305              9119279  3224425  403087
 
     Using Slab Decomposition
 


     bravais-lattice index     =            0
     lattice parameter (alat)  =      43.8349  a.u.
     unit-cell volume          =   94338.8593 (a.u.)^3
     number of atoms/cell      =          229
     number of atomic types    =            6
     number of electrons       =      1798.00
     number of Kohn-Sham states=         3000
     kinetic-energy cutoff     =      40.0000  Ry
     charge density cutoff     =     320.0000  Ry
     Exchange-correlation= SLA  PW   PBX  PBC
                           (   1   4   3   4   0   0   0)

     celldm(1)=  43.834893  celldm(2)=   0.000000  celldm(3)=   0.000000
     celldm(4)=   0.000000  celldm(5)=   0.000000  celldm(6)=   0.000000

     crystal axes: (cart. coord. in units of alat)
               a(1) = (   1.000000   0.000000   0.000000 )  
               a(2) = (  -0.500000   0.866025   0.000000 )  
               a(3) = (   0.000000   0.000000   1.293303 )  

     reciprocal axes: (cart. coord. in units 2 pi/alat)
               b(1) = (  1.000000  0.577350  0.000000 )  
               b(2) = (  0.000000  1.154701  0.000000 )  
               b(3) = (  0.000000  0.000000  0.773214 )  


     PseudoPot. # 1 for O  read from file:
     ./pseudo/O.pbe-n-kjpaw_psl.0.1.UPF
     MD5 check sum: 0234752ac141de4415c5fc33072bef88
     Pseudo is Projector augmented-wave + core cor, Zval =  6.0
     Generated using "atomic" code by A. Dal Corso  v.5.0.99 svn rev. 10869
     Shape of augmentation charge: BESSEL
     Using radial grid of 1095 points,  4 beta functions with: 
                l(1) =   0
                l(2) =   0
                l(3) =   1
                l(4) =   1
     Q(r) pseudized with 0 coefficients 


     PseudoPot. # 2 for Ce read from file:
     ./pseudo/Ce.paw.z_12.atompaw.wentzcovitch.v1.2.upf
     MD5 check sum: 2241420ff980c77e0c917a2dc8a7e08e
     Pseudo is Projector augmented-wave + core cor, Zval = 12.0
     Generated using ATOMPAW code
     Shape of augmentation charge: BESSEL
     Using radial grid of 1102 points,  8 beta functions with: 
                l(1) =   0
                l(2) =   0
                l(3) =   1
                l(4) =   1
                l(5) =   2
                l(6) =   2
                l(7) =   3
                l(8) =   3
     Q(r) pseudized with 0 coefficients 


     PseudoPot. # 3 for H  read from file:
     ./pseudo/H.pbe-rrkjus_psl.1.0.0.UPF
     MD5 check sum: f52b6d4d1c606e5624b1dc7b2218f220
     Pseudo is Ultrasoft, Zval =  1.0
     Generated using "atomic" code by A. Dal Corso  v.5.1
     Using radial grid of  929 points,  2 beta functions with: 
                l(1) =   0
                l(2) =   0
     Q(r) pseudized with 0 coefficients 


     PseudoPot. # 4 for N  read from file:
     ./pseudo/N.pbe-n-radius_5.UPF
     MD5 check sum: 16739722b17309cd8fe442a2ace49922
     Pseudo is Ultrasoft + core correction, Zval =  5.0
     Generated using "atomic" code by A. Dal Corso  v.5.1
     Using radial grid of 1085 points,  4 beta functions with: 
                l(1) =   0
                l(2) =   0
                l(3) =   1
                l(4) =   1
     Q(r) pseudized with 0 coefficients 


     PseudoPot. # 5 for C  read from file:
     ./pseudo/C.pbe-n-kjpaw_psl.1.0.0.UPF
     MD5 check sum: 5d2aebdfa2cae82b50a7e79e9516da0f
     Pseudo is Projector augmented-wave + core cor, Zval =  4.0
     Generated using "atomic" code by A. Dal Corso  v.5.1
     Shape of augmentation charge: PSQ
     Using radial grid of 1073 points,  4 beta functions with: 
                l(1) =   0
                l(2) =   0
                l(3) =   1
                l(4) =   1
     Q(r) pseudized with 0 coefficients 


     PseudoPot. # 6 for Fe read from file:
     ./pseudo/Fe.pbe-spn-kjpaw_psl.0.2.1.UPF
     MD5 check sum: e86618425769142926afa95317d90200
     Pseudo is Projector augmented-wave + core cor, Zval = 16.0
     Generated using "atomic" code by A. Dal Corso  v.5.0.99 svn rev. 10869
     Shape of augmentation charge: PSQ
     Using radial grid of 1191 points,  6 beta functions with: 
                l(1) =   0
                l(2) =   0
                l(3) =   1
                l(4) =   1
                l(5) =   2
                l(6) =   2
     Q(r) pseudized with 0 coefficients 


     atomic species   valence    mass     pseudopotential
        O              6.00    15.99940     O ( 1.00)
        Ce            12.00   140.11600     Ce( 1.00)
        H              1.00     1.00794     H ( 1.00)
        N              5.00    14.00670     N ( 1.00)
        C              4.00    12.01070     C ( 1.00)
        Fe            16.00    55.84500     Fe( 1.00)

     Starting magnetic structure 
     atomic species   magnetization
        O            0.100
        Ce           0.417
        H            0.000
        N            0.000
        C            0.000
        Fe           0.417


     Simplified LDA+U calculation (l_max = 3) with parameters (eV):
     atomic species    L          U    alpha       J0     beta
        Ce             3     5.0000   0.0000   0.0000   0.0000
        Fe             2     6.0000   0.0000   0.0000   0.0000



     No symmetry found


                                    s                        frac. trans.

      isym =  1     identity                                     

 cryst.   s( 1) = (     1          0          0      )
                  (     0          1          0      )
                  (     0          0          1      )

 cart.    s( 1) = (  1.0000000  0.0000000  0.0000000 )
                  (  0.0000000  1.0000000  0.0000000 )
                  (  0.0000000  0.0000000  1.0000000 )


   Cartesian axes

     site n.     atom                  positions (alat units)
         1           O   tau(   1) = (   0.0833330   0.2405628   0.2721652  )
         2           O   tau(   2) = (   0.0833331   0.8179129   0.2721652  )
         3           O   tau(   3) = (   0.0833335   0.5292376   0.2721652  )
         4           O   tau(   4) = (   0.1666664   0.6735755   0.2721652  )
         5           O   tau(   5) = (   0.1666665   0.0962249   0.2721652  )
         6           O   tau(   6) = (   0.1666667   0.3849002   0.2721652  )
         7           O   tau(   7) = (   0.2499996   0.8179129   0.2721652  )
         8           O   tau(   8) = (   0.2500000   0.5292376   0.2721652  )
         9           O   tau(   9) = (   0.2500000   0.2405628   0.2721652  )
        10           O   tau(  10) = (   0.3333329   0.6735755   0.2721652  )
        11           O   tau(  11) = (   0.3333332   0.3849002   0.2721652  )
        12           O   tau(  12) = (   0.3333335   0.0962249   0.2721652  )
        13           O   tau(  13) = (   0.4166664   0.5292376   0.2721652  )
        14           O   tau(  14) = (   0.4166665   0.2405628   0.2721652  )
        15           O   tau(  15) = (   0.4166666   0.8179129   0.2721652  )
        16           O   tau(  16) = (  -0.0000000   0.0962249   0.2721652  )
        17           O   tau(  17) = (  -0.0000001   0.6735755   0.2721652  )
        18           O   tau(  18) = (  -0.0000003   0.3849002   0.2721652  )
        19           O   tau(  19) = (  -0.0833334   0.8179129   0.2721652  )
        20           O   tau(  20) = (  -0.0833335   0.2405628   0.2721652  )
        21           O   tau(  21) = (  -0.0833336   0.5292376   0.2721652  )
        22           O   tau(  22) = (  -0.1666668   0.3849002   0.2721652  )
        23           O   tau(  23) = (  -0.1666671   0.6735755   0.2721652  )
        24           O   tau(  24) = (  -0.2500001   0.5292376   0.2721652  )
        25           O   tau(  25) = (  -0.2500004   0.8179129   0.2721652  )
        26           O   tau(  26) = (  -0.3333336   0.6735755   0.2721652  )
        27           O   tau(  27) = (  -0.4166669   0.8179129   0.2721652  )
        28           O   tau(  28) = (   0.4999997   0.3849002   0.2721652  )
        29           O   tau(  29) = (   0.4999999   0.6735755   0.2721652  )
        30           O   tau(  30) = (   0.5000000   0.0962249   0.2721652  )
        31           O   tau(  31) = (   0.5833329   0.2405628   0.2721652  )
        32           O   tau(  32) = (   0.5833335   0.5292376   0.2721652  )
        33           O   tau(  33) = (   0.6666665   0.0962249   0.2721652  )
        34           O   tau(  34) = (   0.6666667   0.3849002   0.2721652  )
        35           O   tau(  35) = (   0.7500000   0.2405628   0.2721652  )
        36           O   tau(  36) = (   0.8333335   0.0962249   0.2721652  )
        37           Ce  tau(  37) = (   0.0000000   0.0000000   0.3061864  )
        38           Ce  tau(  38) = (   0.0000002   0.5773501   0.3061864  )
        39           Ce  tau(  39) = (   0.0833332   0.7216879   0.3061864  )
        40           Ce  tau(  40) = (   0.0833332   0.1443374   0.3061864  )
        41           Ce  tau(  41) = (   0.0833334   0.4330127   0.3061864  )
        42           Ce  tau(  42) = (   0.1666665   0.0000000   0.3061864  )
        43           Ce  tau(  43) = (   0.1666667   0.5773501   0.3061864  )
        44           Ce  tau(  44) = (   0.1666667   0.2886753   0.3061864  )
        45           Ce  tau(  45) = (   0.2499997   0.7216879   0.3061864  )
        46           Ce  tau(  46) = (   0.2499999   0.4330127   0.3061864  )
        47           Ce  tau(  47) = (   0.2500002   0.1443374   0.3061864  )
        48           Ce  tau(  48) = (   0.3333332   0.5773501   0.3061864  )
        49           Ce  tau(  49) = (   0.3333332   0.2886753   0.3061864  )
        50           Ce  tau(  50) = (   0.3333335   0.0000000   0.3061864  )
        51           Ce  tau(  51) = (   0.4166665   0.4330127   0.3061864  )
        52           Ce  tau(  52) = (   0.4166667   0.7216879   0.3061864  )
        53           Ce  tau(  53) = (   0.4166667   0.1443374   0.3061864  )
        54           Ce  tau(  54) = (  -0.0000003   0.2886753   0.3061864  )
        55           Ce  tau(  55) = (  -0.0833333   0.1443374   0.3061864  )
        56           Ce  tau(  56) = (  -0.0833333   0.7216879   0.3061864  )
        57           Ce  tau(  57) = (  -0.0833336   0.4330127   0.3061864  )
        58           Ce  tau(  58) = (  -0.1666668   0.2886753   0.3061864  )
        59           Ce  tau(  59) = (  -0.1666668   0.5773501   0.3061864  )
        60           Ce  tau(  60) = (  -0.2500001   0.4330127   0.3061864  )
        61           Ce  tau(  61) = (  -0.2500003   0.7216879   0.3061864  )
        62           Ce  tau(  62) = (  -0.3333333   0.5773501   0.3061864  )
        63           Ce  tau(  63) = (   0.4999997   0.2886753   0.3061864  )
        64           Ce  tau(  64) = (   0.5000000   0.0000000   0.3061864  )
        65           Ce  tau(  65) = (   0.5000002   0.5773501   0.3061864  )
        66           Ce  tau(  66) = (   0.5833332   0.7216879   0.3061864  )
        67           Ce  tau(  67) = (   0.5833332   0.1443374   0.3061864  )
        68           Ce  tau(  68) = (   0.5833334   0.4330127   0.3061864  )
        69           Ce  tau(  69) = (   0.6666665   0.0000000   0.3061864  )
        70           Ce  tau(  70) = (   0.6666667   0.2886753   0.3061864  )
        71           Ce  tau(  71) = (   0.7500002   0.1443374   0.3061864  )
        72           Ce  tau(  72) = (   0.8333335   0.0000000   0.3061864  )
        73           O   tau(  73) = (   0.0000002   0.4811252   0.3402076  )
        74           O   tau(  74) = (   0.0833332   0.0481125   0.3402076  )
        75           O   tau(  75) = (   0.0833334   0.6254625   0.3402076  )
        76           O   tau(  76) = (   0.0833334   0.3367877   0.3402076  )
        77           O   tau(  77) = (   0.1666664   0.7698004   0.3402076  )
        78           O   tau(  78) = (   0.1666667   0.4811252   0.3402076  )
        79           O   tau(  79) = (   0.1666670   0.1924499   0.3402076  )
        80           O   tau(  80) = (   0.2499999   0.6254625   0.3402076  )
        81           O   tau(  81) = (   0.2500000   0.3367877   0.3402076  )
        82           O   tau(  82) = (   0.2500002   0.0481125   0.3402076  )
        83           O   tau(  83) = (   0.3333332   0.4811252   0.3402076  )
        84           O   tau(  84) = (   0.3333334   0.7698004   0.3402076  )
        85           O   tau(  85) = (   0.3333335   0.1924499   0.3402076  )
        86           O   tau(  86) = (   0.4166664   0.3367877   0.3402076  )
        87           O   tau(  87) = (   0.4166668   0.0481125   0.3402076  )
        88           O   tau(  88) = (   0.4166670   0.6254625   0.3402076  )
        89           O   tau(  89) = (  -0.0000000   0.1924499   0.3402076  )
        90           O   tau(  90) = (  -0.0000001   0.7698004   0.3402076  )
        91           O   tau(  91) = (  -0.0833331   0.6254625   0.3402076  )
        92           O   tau(  92) = (  -0.0833336   0.3367877   0.3402076  )
        93           O   tau(  93) = (  -0.1666666   0.7698004   0.3402076  )
        94           O   tau(  94) = (  -0.1666668   0.4811252   0.3402076  )
        95           O   tau(  95) = (  -0.2500001   0.6254625   0.3402076  )
        96           O   tau(  96) = (  -0.3333336   0.7698004   0.3402076  )
        97           O   tau(  97) = (   0.4999999   0.7698004   0.3402076  )
        98           O   tau(  98) = (   0.5000000   0.1924499   0.3402076  )
        99           O   tau(  99) = (   0.5000002   0.4811252   0.3402076  )
       100           O   tau( 100) = (   0.5833332   0.0481125   0.3402076  )
       101           O   tau( 101) = (   0.5833335   0.6254625   0.3402076  )
       102           O   tau( 102) = (   0.5833335   0.3367877   0.3402076  )
       103           O   tau( 103) = (   0.6666667   0.4811252   0.3402076  )
       104           O   tau( 104) = (   0.6666670   0.1924499   0.3402076  )
       105           O   tau( 105) = (   0.7500000   0.3367877   0.3402076  )
       106           O   tau( 106) = (   0.7500003   0.0481125   0.3402076  )
       107           O   tau( 107) = (   0.8333335   0.1924499   0.3402076  )
       108           O   tau( 108) = (   0.9166668   0.0481125   0.3402076  )
       109           O   tau( 109) = (   0.0832907   0.7217257   0.4066810  )
       110           O   tau( 110) = (   0.3335177   0.2937156   0.4100150  )
       111           O   tau( 111) = (  -0.1666518   0.2886838   0.4065443  )
       112           O   tau( 112) = (  -0.4166003   0.7217422   0.4066748  )
       113           O   tau( 113) = (   0.1666991   0.5773614   0.4068614  )
       114           O   tau( 114) = (   0.4167578   0.1443427   0.4068824  )
       115           O   tau( 115) = (  -0.0834068   0.1442972   0.4066441  )
       116           O   tau( 116) = (  -0.3335288   0.5772368   0.4067707  )
       117           O   tau( 117) = (  -0.0006011   0.2887219   0.4065513  )
       118           O   tau( 118) = (   0.2497136   0.7221928   0.4066084  )
       119           O   tau( 119) = (  -0.2500236   0.7216721   0.4066854  )
       120           O   tau( 120) = (   0.5016585   0.2878502   0.4059490  )
       121           O   tau( 121) = (   0.0832734   0.4330656   0.4067911  )
       122           O   tau( 122) = (   0.3333504   0.0001207   0.4067064  )
       123           O   tau( 123) = (   0.5833946   0.4330328   0.4067982  )
       124           O   tau( 124) = (   0.8333475   0.0001001   0.4066604  )
       125           O   tau( 125) = (   0.0000072   0.0000146   0.4065315  )
       126           O   tau( 126) = (   0.2540897   0.4308632   0.4100195  )
       127           O   tau( 127) = (  -0.2499328   0.4330604   0.4066573  )
       128           O   tau( 128) = (   0.5000263  -0.0001146   0.4066327  )
       129           O   tau( 129) = (   0.1666540  -0.0001637   0.4066088  )
       130           O   tau( 130) = (   0.4128367   0.4309987   0.4097859  )
       131           O   tau( 131) = (  -0.0834179   0.4330640   0.4066399  )
       132           O   tau( 132) = (   0.6666714  -0.0000010   0.4065471  )
       133           O   tau( 133) = (   0.1650180   0.2879570   0.4059246  )
       134           O   tau( 134) = (   0.4169887   0.7221752   0.4066333  )
       135           O   tau( 135) = (  -0.0833206   0.7216652   0.4066696  )
       136           O   tau( 136) = (   0.6672762   0.2887316   0.4065739  )
       137           O   tau( 137) = (   0.2499498   0.1442083   0.4069075  )
       138           O   tau( 138) = (   0.0001875   0.5772452   0.4067606  )
       139           O   tau( 139) = (   0.4999886   0.5774023   0.4068460  )
       140           O   tau( 140) = (   0.7500796   0.1442876   0.4066510  )
       141           O   tau( 141) = (   0.0830871   0.1439073   0.4066482  )
       142           O   tau( 142) = (   0.3334165   0.5793741   0.4059392  )
       143           O   tau( 143) = (  -0.1666763   0.5773368   0.4066802  )
       144           O   tau( 144) = (   0.5835830   0.1438675   0.4066290  )
       145           Ce  tau( 145) = (   0.0831302   0.6256723   0.4415100  )
       146           Ce  tau( 146) = (   0.3333189   0.1918606   0.4415611  )
       147           Ce  tau( 147) = (   0.5835543   0.6256902   0.4415297  )
       148           Ce  tau( 148) = (   0.8333427   0.1923979   0.4418161  )
       149           Ce  tau( 149) = (  -0.0001200   0.7697524   0.4415807  )
       150           Ce  tau( 150) = (   0.2434730   0.3331126   0.4389671  )
       151           Ce  tau( 151) = (   0.5002626   0.7703610   0.4416975  )
       152           Ce  tau( 152) = (   0.7505496   0.3367162   0.4416800  )
       153           Ce  tau( 153) = (   0.1664267   0.7703461   0.4416858  )
       154           Ce  tau( 154) = (   0.4233278   0.3330850   0.4389825  )
       155           Ce  tau( 155) = (  -0.0838419   0.3367158   0.4416787  )
       156           Ce  tau( 156) = (  -0.3331864   0.7697782   0.4415763  )
       157           Ce  tau( 157) = (   0.1660931   0.4814204   0.4414705  )
       158           Ce  tau( 158) = (   0.4167668   0.0478887   0.4415161  )
       159           Ce  tau( 159) = (   0.6669824   0.4811619   0.4415056  )
       160           Ce  tau( 160) = (   0.9166233   0.0482049   0.4418146  )
       161           Ce  tau( 161) = (   0.0811230   0.3365160   0.4416173  )
       162           Ce  tau( 162) = (   0.3333282   0.7705963   0.4418471  )
       163           Ce  tau( 163) = (  -0.1666585   0.7697697   0.4416633  )
       164           Ce  tau( 164) = (   0.5856245   0.3364734   0.4416134  )
       165           Ce  tau( 165) = (   0.2499371   0.0478959   0.4415701  )
       166           Ce  tau( 166) = (  -0.0002992   0.4811608   0.4415186  )
       167           Ce  tau( 167) = (   0.5005603   0.4814325   0.4413264  )
       168           Ce  tau( 168) = (   0.7500554   0.0481913   0.4418072  )
       169           Ce  tau( 169) = (  -0.0005878   0.1921237   0.4417909  )
       170           Ce  tau( 170) = (   0.2490998   0.6276899   0.4416059  )
       171           Ce  tau( 171) = (  -0.2499603   0.6254693   0.4416334  )
       172           Ce  tau( 172) = (   0.5013552   0.1906876   0.4417761  )
       173           Ce  tau( 173) = (   0.0830530   0.0477705   0.4416711  )
       174           Ce  tau( 174) = (   0.3333981   0.4890710   0.4392604  )
       175           Ce  tau( 175) = (  -0.1666626   0.4812260   0.4415488  )
       176           Ce  tau( 176) = (   0.5836385   0.0477315   0.4416829  )
       177           Ce  tau( 177) = (   0.1653927   0.1907338   0.4419040  )
       178           Ce  tau( 178) = (   0.4175981   0.6276984   0.4415869  )
       179           Ce  tau( 179) = (  -0.0833532   0.6254685   0.4416300  )
       180           Ce  tau( 180) = (   0.6672936   0.1920954   0.4417942  )
       181           O   tau( 181) = (   0.1662023   0.3836119   0.4744534  )
       182           O   tau( 182) = (   0.4167139   0.8182679   0.4757906  )
       183           O   tau( 183) = (  -0.0833335   0.8179826   0.4755627  )
       184           O   tau( 184) = (   0.6669572   0.3846983   0.4757600  )
       185           O   tau( 185) = (   0.0843809   0.5286548   0.4753769  )
       186           O   tau( 186) = (   0.3334272   0.0972471   0.4751099  )
       187           O   tau( 187) = (   0.5822747   0.5286057   0.4754745  )
       188           O   tau( 188) = (   0.8333353   0.0962525   0.4758764  )
       189           O   tau( 189) = (   0.2499431   0.8182832   0.4758010  )
       190           O   tau( 190) = (  -0.0003363   0.3847133   0.4756926  )
       191           O   tau( 191) = (  -0.2499509   0.8179807   0.4755745  )
       192           O   tau( 192) = (   0.5004909   0.3835440   0.4746325  )
       193           O   tau( 193) = (   0.1667155   0.6739693   0.4757801  )
       194           O   tau( 194) = (   0.4181493   0.2410953   0.4741788  )
       195           O   tau( 195) = (  -0.0836589   0.2404716   0.4757469  )
       196           O   tau( 196) = (  -0.3334731   0.6734010   0.4756023  )
       197           O   tau( 197) = (   0.0835157   0.8179702   0.4757493  )
       198           O   tau( 198) = (   0.3346203   0.3871948   0.4962087  )
       199           O   tau( 199) = (  -0.1667019   0.3847459   0.4757617  )
       200           O   tau( 200) = (  -0.4168255   0.8179381   0.4757517  )
       201           O   tau( 201) = (   0.2486792   0.2412246   0.4731855  )
       202           O   tau( 202) = (   0.0001582   0.6734315   0.4755902  )
       203           O   tau( 203) = (   0.4999333   0.6739376   0.4757960  )
       204           O   tau( 204) = (   0.7503540   0.2404706   0.4757484  )
       205           O   tau( 205) = (   0.2512667   0.5306462   0.4747555  )
       206           O   tau( 206) = (  -0.0002813   0.0960533   0.4757190  )
       207           O   tau( 207) = (  -0.2501636   0.5291601   0.4756133  )
       208           O   tau( 208) = (   0.5003831   0.0960717   0.4755803  )
       209           O   tau( 209) = (   0.0823887   0.2401358   0.4751495  )
       210           O   tau( 210) = (   0.3333221   0.6747530   0.4755167  )
       211           O   tau( 211) = (  -0.1666706   0.6735287   0.4757216  )
       212           O   tau( 212) = (   0.5843588   0.2400805   0.4751808  )
       213           O   tau( 213) = (   0.1662617   0.0960003   0.4754267  )
       214           O   tau( 214) = (   0.4155146   0.5306273   0.4748651  )
       215           O   tau( 215) = (  -0.0831971   0.5291699   0.4755993  )
       216           O   tau( 216) = (   0.6669557   0.0960217   0.4757260  )
       217           N   tau( 217) = (   0.3347172   0.3776763   0.5501764  )
       218           C   tau( 218) = (   0.3351228   0.3672722   0.5994698  )
       219           N   tau( 219) = (   0.2479572   0.2319841   0.6195565  )
       220           C   tau( 220) = (   0.2743172   0.2670640   0.6449242  )
       221           N   tau( 221) = (   0.4397048   0.2590201   0.6569292  )
       222           C   tau( 222) = (   0.3975244   0.2842571   0.6691989  )
       223           Fe  tau( 223) = (   0.3227173   0.3336231   0.6835117  )
       224           C   tau( 224) = (   0.2478320   0.3844823   0.6860929  )
       225           N   tau( 225) = (   0.2070969   0.4144432   0.6831729  )
       226           C   tau( 226) = (   0.3725169   0.4029882   0.7133489  )
       227           N   tau( 227) = (   0.4008398   0.4432996   0.7247121  )
       228           C   tau( 228) = (   0.3114308   0.3036185   0.7666507  )
       229           N   tau( 229) = (   0.3047919   0.2863908   0.8138394  )

   Crystallographic axes

     site n.     atom                  positions (cryst. coord.)
         1           O   tau(   1) = (  0.2222220  0.2777780  0.2104420  )
         2           O   tau(   2) = (  0.5555555  0.9444445  0.2104420  )
         3           O   tau(   3) = (  0.3888890  0.6111110  0.2104420  )
         4           O   tau(   4) = (  0.5555555  0.7777780  0.2104420  )
         5           O   tau(   5) = (  0.2222220  0.1111110  0.2104420  )
         6           O   tau(   6) = (  0.3888890  0.4444445  0.2104420  )
         7           O   tau(   7) = (  0.7222220  0.9444445  0.2104420  )
         8           O   tau(   8) = (  0.5555555  0.6111110  0.2104420  )
         9           O   tau(   9) = (  0.3888890  0.2777780  0.2104420  )
        10           O   tau(  10) = (  0.7222220  0.7777780  0.2104420  )
        11           O   tau(  11) = (  0.5555555  0.4444445  0.2104420  )
        12           O   tau(  12) = (  0.3888890  0.1111110  0.2104420  )
        13           O   tau(  13) = (  0.7222220  0.6111110  0.2104420  )
        14           O   tau(  14) = (  0.5555555  0.2777780  0.2104420  )
        15           O   tau(  15) = (  0.8888890  0.9444445  0.2104420  )
        16           O   tau(  16) = (  0.0555555  0.1111110  0.2104420  )
        17           O   tau(  17) = (  0.3888890  0.7777780  0.2104420  )
        18           O   tau(  18) = (  0.2222220  0.4444445  0.2104420  )
        19           O   tau(  19) = (  0.3888890  0.9444445  0.2104420  )
        20           O   tau(  20) = (  0.0555555  0.2777780  0.2104420  )
        21           O   tau(  21) = (  0.2222220  0.6111110  0.2104420  )
        22           O   tau(  22) = (  0.0555555  0.4444445  0.2104420  )
        23           O   tau(  23) = (  0.2222220  0.7777780  0.2104420  )
        24           O   tau(  24) = (  0.0555555  0.6111110  0.2104420  )
        25           O   tau(  25) = (  0.2222220  0.9444445  0.2104420  )
        26           O   tau(  26) = (  0.0555555  0.7777780  0.2104420  )
        27           O   tau(  27) = (  0.0555555  0.9444445  0.2104420  )
        28           O   tau(  28) = (  0.7222220  0.4444445  0.2104420  )
        29           O   tau(  29) = (  0.8888890  0.7777780  0.2104420  )
        30           O   tau(  30) = (  0.5555555  0.1111110  0.2104420  )
        31           O   tau(  31) = (  0.7222220  0.2777780  0.2104420  )
        32           O   tau(  32) = (  0.8888890  0.6111110  0.2104420  )
        33           O   tau(  33) = (  0.7222220  0.1111110  0.2104420  )
        34           O   tau(  34) = (  0.8888890  0.4444445  0.2104420  )
        35           O   tau(  35) = (  0.8888890  0.2777780  0.2104420  )
        36           O   tau(  36) = (  0.8888890  0.1111110  0.2104420  )
        37           Ce  tau(  37) = (  0.0000000  0.0000000  0.2367477  )
        38           Ce  tau(  38) = (  0.3333335  0.6666665  0.2367477  )
        39           Ce  tau(  39) = (  0.5000000  0.8333335  0.2367477  )
        40           Ce  tau(  40) = (  0.1666665  0.1666665  0.2367477  )
        41           Ce  tau(  41) = (  0.3333335  0.5000000  0.2367477  )
        42           Ce  tau(  42) = (  0.1666665  0.0000000  0.2367477  )
        43           Ce  tau(  43) = (  0.5000000  0.6666665  0.2367477  )
        44           Ce  tau(  44) = (  0.3333335  0.3333335  0.2367477  )
        45           Ce  tau(  45) = (  0.6666665  0.8333335  0.2367477  )
        46           Ce  tau(  46) = (  0.5000000  0.5000000  0.2367477  )
        47           Ce  tau(  47) = (  0.3333335  0.1666665  0.2367477  )
        48           Ce  tau(  48) = (  0.6666665  0.6666665  0.2367477  )
        49           Ce  tau(  49) = (  0.5000000  0.3333335  0.2367477  )
        50           Ce  tau(  50) = (  0.3333335  0.0000000  0.2367477  )
        51           Ce  tau(  51) = (  0.6666665  0.5000000  0.2367477  )
        52           Ce  tau(  52) = (  0.8333335  0.8333335  0.2367477  )
        53           Ce  tau(  53) = (  0.5000000  0.1666665  0.2367477  )
        54           Ce  tau(  54) = (  0.1666665  0.3333335  0.2367477  )
        55           Ce  tau(  55) = (  0.0000000  0.1666665  0.2367477  )
        56           Ce  tau(  56) = (  0.3333335  0.8333335  0.2367477  )
        57           Ce  tau(  57) = (  0.1666665  0.5000000  0.2367477  )
        58           Ce  tau(  58) = ( -0.0000000  0.3333335  0.2367477  )
        59           Ce  tau(  59) = (  0.1666665  0.6666665  0.2367477  )
        60           Ce  tau(  60) = (  0.0000000  0.5000000  0.2367477  )
        61           Ce  tau(  61) = (  0.1666665  0.8333335  0.2367477  )
        62           Ce  tau(  62) = (  0.0000000  0.6666665  0.2367477  )
        63           Ce  tau(  63) = (  0.6666665  0.3333335  0.2367477  )
        64           Ce  tau(  64) = (  0.5000000  0.0000000  0.2367477  )
        65           Ce  tau(  65) = (  0.8333335  0.6666665  0.2367477  )
        66           Ce  tau(  66) = (  1.0000000  0.8333335  0.2367477  )
        67           Ce  tau(  67) = (  0.6666665  0.1666665  0.2367477  )
        68           Ce  tau(  68) = (  0.8333335  0.5000000  0.2367477  )
        69           Ce  tau(  69) = (  0.6666665  0.0000000  0.2367477  )
        70           Ce  tau(  70) = (  0.8333335  0.3333335  0.2367477  )
        71           Ce  tau(  71) = (  0.8333335  0.1666665  0.2367477  )
        72           Ce  tau(  72) = (  0.8333335  0.0000000  0.2367477  )
        73           O   tau(  73) = (  0.2777780  0.5555555  0.2630533  )
        74           O   tau(  74) = (  0.1111110  0.0555555  0.2630533  )
        75           O   tau(  75) = (  0.4444445  0.7222220  0.2630533  )
        76           O   tau(  76) = (  0.2777780  0.3888890  0.2630533  )
        77           O   tau(  77) = (  0.6111110  0.8888890  0.2630533  )
        78           O   tau(  78) = (  0.4444445  0.5555555  0.2630533  )
        79           O   tau(  79) = (  0.2777780  0.2222220  0.2630533  )
        80           O   tau(  80) = (  0.6111110  0.7222220  0.2630533  )
        81           O   tau(  81) = (  0.4444445  0.3888890  0.2630533  )
        82           O   tau(  82) = (  0.2777780  0.0555555  0.2630533  )
        83           O   tau(  83) = (  0.6111110  0.5555555  0.2630533  )
        84           O   tau(  84) = (  0.7777780  0.8888890  0.2630533  )
        85           O   tau(  85) = (  0.4444445  0.2222220  0.2630533  )
        86           O   tau(  86) = (  0.6111110  0.3888890  0.2630533  )
        87           O   tau(  87) = (  0.4444445  0.0555555  0.2630533  )
        88           O   tau(  88) = (  0.7777780  0.7222220  0.2630533  )
        89           O   tau(  89) = (  0.1111110  0.2222220  0.2630533  )
        90           O   tau(  90) = (  0.4444445  0.8888890  0.2630533  )
        91           O   tau(  91) = (  0.2777780  0.7222220  0.2630533  )
        92           O   tau(  92) = (  0.1111110  0.3888890  0.2630533  )
        93           O   tau(  93) = (  0.2777780  0.8888890  0.2630533  )
        94           O   tau(  94) = (  0.1111110  0.5555555  0.2630533  )
        95           O   tau(  95) = (  0.1111110  0.7222220  0.2630533  )
        96           O   tau(  96) = (  0.1111110  0.8888890  0.2630533  )
        97           O   tau(  97) = (  0.9444445  0.8888890  0.2630533  )
        98           O   tau(  98) = (  0.6111110  0.2222220  0.2630533  )
        99           O   tau(  99) = (  0.7777780  0.5555555  0.2630533  )
       100           O   tau( 100) = (  0.6111110  0.0555555  0.2630533  )
       101           O   tau( 101) = (  0.9444445  0.7222220  0.2630533  )
       102           O   tau( 102) = (  0.7777780  0.3888890  0.2630533  )
       103           O   tau( 103) = (  0.9444445  0.5555555  0.2630533  )
       104           O   tau( 104) = (  0.7777780  0.2222220  0.2630533  )
       105           O   tau( 105) = (  0.9444445  0.3888890  0.2630533  )
       106           O   tau( 106) = (  0.7777780  0.0555555  0.2630533  )
       107           O   tau( 107) = (  0.9444445  0.2222220  0.2630533  )
       108           O   tau( 108) = (  0.9444445  0.0555555  0.2630533  )
       109           O   tau( 109) = (  0.4999793  0.8333771  0.3144515  )
       110           O   tau( 110) = (  0.5030945  0.3391536  0.3170294  )
       111           O   tau( 111) = (  0.0000199  0.3333434  0.3143459  )
       112           O   tau( 112) = (  0.0000979  0.8333961  0.3144468  )
       113           O   tau( 113) = (  0.5000390  0.6666796  0.3145910  )
       114           O   tau( 114) = (  0.5000942  0.1666727  0.3146072  )
       115           O   tau( 115) = ( -0.0000967  0.1666201  0.3144230  )
       116           O   tau( 116) = ( -0.0002608  0.6665357  0.3145209  )
       117           O   tau( 117) = (  0.1660926  0.3333873  0.3143513  )
       118           O   tau( 118) = (  0.6666719  0.8339165  0.3143954  )
       119           O   tau( 119) = (  0.1666341  0.8333152  0.3144550  )
       120           O   tau( 120) = (  0.6678490  0.3323809  0.3138856  )
       121           O   tau( 121) = (  0.3333040  0.5000611  0.3145366  )
       122           O   tau( 122) = (  0.3334201  0.0001394  0.3144712  )
       123           O   tau( 123) = (  0.8334063  0.5000233  0.3145422  )
       124           O   tau( 124) = (  0.8334053  0.0001155  0.3144356  )
       125           O   tau( 125) = (  0.0000156  0.0000168  0.3143359  )
       126           O   tau( 126) = (  0.5028488  0.4975181  0.3170329  )
       127           O   tau( 127) = (  0.0000948  0.5000551  0.3144332  )
       128           O   tau( 128) = (  0.4999602 -0.0001323  0.3144142  )
       129           O   tau( 129) = (  0.1665595 -0.0001891  0.3143957  )
       130           O   tau( 130) = (  0.6616740  0.4976745  0.3168523  )
       131           O   tau( 131) = (  0.1666118  0.5000592  0.3144197  )
       132           O   tau( 132) = (  0.6666708 -0.0000012  0.3143480  )
       133           O   tau( 133) = (  0.3312701  0.3325041  0.3138667  )
       134           O   tau( 134) = (  0.8339369  0.8338962  0.3144147  )
       135           O   tau( 135) = (  0.3333331  0.8333073  0.3144427  )
       136           O   tau( 136) = (  0.8339755  0.3333985  0.3143687  )
       137           O   tau( 137) = (  0.3332085  0.1665174  0.3146267  )
       138           O   tau( 138) = (  0.3334603  0.6665453  0.3145130  )
       139           O   tau( 139) = (  0.8333520  0.6667267  0.3145791  )
       140           O   tau( 140) = (  0.8333841  0.1666090  0.3144283  )
       141           O   tau( 141) = (  0.1661720  0.1661698  0.3144262  )
       142           O   tau( 142) = (  0.6679184  0.6690037  0.3138779  )
       143           O   tau( 143) = (  0.1666494  0.6666512  0.3144509  )
       144           O   tau( 144) = (  0.6666450  0.1661239  0.3144113  )
       145           Ce  tau( 145) = (  0.4443624  0.7224642  0.3413818  )
       146           Ce  tau( 146) = (  0.4440897  0.2215416  0.3414213  )
       147           Ce  tau( 147) = (  0.9447968  0.7224848  0.3413970  )
       148           Ce  tau( 148) = (  0.9444237  0.2221619  0.3416185  )
       149           Ce  tau( 149) = (  0.4442969  0.8888336  0.3414365  )
       150           Ce  tau( 150) = (  0.4357957  0.3846453  0.3394156  )
       151           Ce  tau( 151) = (  0.9450309  0.8895363  0.3415268  )
       152           Ce  tau( 152) = (  0.9449529  0.3888064  0.3415132  )
       153           Ce  tau( 153) = (  0.6111864  0.8895191  0.3415177  )
       154           Ce  tau( 154) = (  0.6156346  0.3846135  0.3394275  )
       155           Ce  tau( 155) = (  0.1105611  0.3888059  0.3415122  )
       156           Ce  tau( 156) = (  0.1112454  0.8888633  0.3414331  )
       157           Ce  tau( 157) = (  0.4440414  0.5558964  0.3413513  )
       158           Ce  tau( 158) = (  0.4444153  0.0552971  0.3413865  )
       159           Ce  tau( 159) = (  0.9447814  0.5555980  0.3413784  )
       160           Ce  tau( 160) = (  0.9444545  0.0556623  0.3416173  )
       161           Ce  tau( 161) = (  0.2754107  0.3885753  0.3414648  )
       162           Ce  tau( 162) = (  0.7782323  0.8898081  0.3416425  )
       163           Ce  tau( 163) = (  0.2777684  0.8888536  0.3415003  )
       164           Ce  tau( 164) = (  0.7798876  0.3885261  0.3414617  )
       165           Ce  tau( 165) = (  0.2775898  0.0553054  0.3414282  )
       166           Ce  tau( 166) = (  0.2774992  0.5555967  0.3413884  )
       167           Ce  tau( 167) = (  0.7785155  0.5559104  0.3412398  )
       168           Ce  tau( 168) = (  0.7778787  0.0556466  0.3416116  )
       169           Ce  tau( 169) = (  0.1103350  0.2218454  0.3415990  )
       170           Ce  tau( 170) = (  0.6114969  0.7247939  0.3414560  )
       171           Ce  tau( 171) = (  0.1111546  0.7222298  0.3414772  )
       172           Ce  tau( 172) = (  0.6114487  0.2201870  0.3415876  )
       173           Ce  tau( 173) = (  0.1106333  0.0551607  0.3415064  )
       174           Ce  tau( 174) = (  0.6157635  0.5647306  0.3396424  )
       175           Ce  tau( 175) = (  0.1111735  0.5556720  0.3414118  )
       176           Ce  tau( 176) = (  0.6111963  0.0551155  0.3415155  )
       177           Ce  tau( 177) = (  0.2755130  0.2202405  0.3416865  )
       178           Ce  tau( 178) = (  0.7800000  0.7248038  0.3414413  )
       179           Ce  tau( 179) = (  0.2777613  0.7222289  0.3414746  )
       180           Ce  tau( 180) = (  0.7782000  0.2218126  0.3416016  )
       181           O   tau( 181) = (  0.3876808  0.4429569  0.3668541  )
       182           O   tau( 182) = (  0.8891412  0.9448545  0.3678880  )
       183           O   tau( 183) = (  0.3889291  0.9445250  0.3677118  )
       184           O   tau( 184) = (  0.8890629  0.4442114  0.3678644  )
       185           O   tau( 185) = (  0.3896000  0.6104380  0.3675682  )
       186           O   tau( 186) = (  0.3895728  0.1122913  0.3673617  )
       187           O   tau( 187) = (  0.8874654  0.6103813  0.3676436  )
       188           O   tau( 188) = (  0.8889067  0.1111428  0.3679544  )
       189           O   tau( 189) = (  0.7223793  0.9448721  0.3678961  )
       190           O   tau( 190) = (  0.2217781  0.4442287  0.3678122  )
       191           O   tau( 191) = (  0.2223106  0.9445229  0.3677209  )
       192           O   tau( 192) = (  0.7219302  0.4428785  0.3669926  )
       193           O   tau( 193) = (  0.5558319  0.7782327  0.3678799  )
       194           O   tau( 194) = (  0.5573458  0.2783929  0.3666418  )
       195           O   tau( 195) = (  0.0551774  0.2776727  0.3678542  )
       196           O   tau( 196) = (  0.0553153  0.7775766  0.3677425  )
       197           O   tau( 197) = (  0.5557711  0.9445107  0.3678561  )
       198           O   tau( 198) = (  0.5581674  0.4470941  0.3836756  )
       199           O   tau( 199) = (  0.0554313  0.4442663  0.3678657  )
       200           O   tau( 200) = (  0.0554115  0.9444737  0.3678580  )
       201           O   tau( 201) = (  0.3879504  0.2785422  0.3658737  )
       202           O   tau( 202) = (  0.3889641  0.7776118  0.3677331  )
       203           O   tau( 203) = (  0.8890315  0.7781962  0.3678923  )
       204           O   tau( 204) = (  0.8891898  0.2776716  0.3678555  )
       205           O   tau( 205) = (  0.5576355  0.6127374  0.3670877  )
       206           O   tau( 206) = (  0.0551751  0.1109128  0.3678327  )
       207           O   tau( 207) = (  0.0553473  0.6110215  0.3677510  )
       208           O   tau( 208) = (  0.5558501  0.1109341  0.3677255  )
       209           O   tau( 209) = (  0.2210312  0.2772849  0.3673924  )
       210           O   tau( 210) = (  0.7228910  0.7791377  0.3676762  )
       211           O   tau( 211) = (  0.2221915  0.7777240  0.3678347  )
       212           O   tau( 212) = (  0.7229694  0.2772211  0.3674165  )
       213           O   tau( 213) = (  0.2216876  0.1108516  0.3676067  )
       214           O   tau( 214) = (  0.7218725  0.6127157  0.3671725  )
       215           O   tau( 215) = (  0.2223194  0.6110329  0.3677401  )
       216           O   tau( 216) = (  0.7223939  0.1108763  0.3678381  )
       217           N   tau( 217) = (  0.5527688  0.4361030  0.4254042  )
       218           C   tau( 218) = (  0.5471676  0.4240894  0.4635186  )
       219           N   tau( 219) = (  0.3818934  0.2678722  0.4790499  )
       220           C   tau( 220) = (  0.4285067  0.3083790  0.4986646  )
       221           N   tau( 221) = (  0.5892502  0.2990906  0.5079470  )
       222           C   tau( 222) = (  0.5616403  0.3282318  0.5174341  )
       223           Fe  tau( 223) = (  0.5153347  0.3852348  0.5285010  )
       224           C   tau( 224) = (  0.4698131  0.4439620  0.5304968  )
       225           N   tau( 225) = (  0.4463758  0.4785578  0.5282390  )
       226           C   tau( 226) = (  0.6051824  0.4653308  0.5515715  )
       227           N   tau( 227) = (  0.6567790  0.5118783  0.5603577  )
       228           C   tau( 228) = (  0.4867251  0.3505884  0.5927853  )
       229           N   tau( 229) = (  0.4701398  0.3306957  0.6292722  )

     number of k points=     1  Methfessel-Paxton smearing, width (Ry)=  0.0200
                       cart. coord. in units 2pi/alat
        k(    1) = (   0.0000000   0.0000000   0.0000000), wk =   1.0000000

                       cryst. coord.
        k(    1) = (   0.0000000   0.0000000   0.0000000), wk =   1.0000000

     Dense  grid:  4559640 G-vectors     FFT dimensions: ( 250, 250, 324)

     Smooth grid:  1612213 G-vectors     FFT dimensions: ( 180, 180, 240)

     Dynamical RAM for                 wfc:      64.04 MB

     Dynamical RAM for     wfc (w. buffer):      64.04 MB

     Dynamical RAM for             U proj.:      10.87 MB

     Dynamical RAM for  U proj. (w. buff.):      10.87 MB

     Dynamical RAM for           str. fact:       2.90 MB

     Dynamical RAM for           local pot:       0.00 MB

     Dynamical RAM for          nlocal pot:      76.21 MB

     Dynamical RAM for                qrad:      20.67 MB

     Dynamical RAM for          rho,v,vnew:      11.48 MB

     Dynamical RAM for           G-vectors:       1.90 MB

     Dynamical RAM for          h,s,v(r/c):       5.72 MB

     Dynamical RAM for          <psi|beta>:      81.71 MB

     Dynamical RAM for                 psi:     128.08 MB

     Dynamical RAM for                hpsi:     128.08 MB

     Dynamical RAM for                spsi:     128.08 MB

     Dynamical RAM for      wfcinit/wfcrot:     334.10 MB

     Dynamical RAM for           addusdens:     338.22 MB

     Estimated static dynamical RAM per process >     200.03 MB

     Estimated max dynamical RAM per process >     671.71 MB

     Estimated total dynamical RAM >      94.46 GB

     Atomic positions and unit cell read from directory:
     ./out/aiida.save/
 

     Check: negative core charge=   -0.000004
     Generating pointlists ...
     new r_m :   0.0226 (alat units)  0.9909 (a.u.) for type    1
     new r_m :   0.0397 (alat units)  1.7405 (a.u.) for type    2
     new r_m :   0.4125 (alat units) 18.0819 (a.u.) for type    3
     new r_m :   0.0208 (alat units)  0.9110 (a.u.) for type    4
     new r_m :   0.0208 (alat units)  0.9110 (a.u.) for type    5
     new r_m :   0.0368 (alat units)  1.6112 (a.u.) for type    6

     The potential is recalculated from file :
     ./out/aiida.save/charge-density


     negative rho (up, down):  4.146E-02 1.009E-01

     HUBBARD ENERGY =   11.4866  (Ry)
     Number of +U iterations with fixed ns =  0
     Starting occupations:

     Hubbard parameters (eV):
     U(  2) =  5.0000
     U(  6) =  6.0000

     ================= HUBBARD OCCUPATIONS ================
     --------------------- ATOM   37 ----------------------
     Tr[ns] (up, down, total) =   0.48983  0.48995  0.97977
     Atomic magnetic moment =  -0.00012
     SPIN  1
     eigenvalues:
       0.029  0.035  0.035  0.038  0.068  0.068  0.217
     eigenvectors (columns):
       0.824 -0.002  0.001 -0.000 -0.001  0.000  0.566
       0.003  0.814 -0.532 -0.001  0.230  0.037 -0.000
      -0.000 -0.531 -0.814 -0.003 -0.038  0.230  0.000
      -0.000  0.128  0.195 -0.000 -0.156  0.960  0.000
       0.000 -0.196  0.127 -0.001  0.960  0.156 -0.000
      -0.000  0.001  0.002 -1.000 -0.000 -0.001 -0.000
      -0.566  0.002 -0.001 -0.000  0.001 -0.000  0.824
     occupation matrix ns (before diag.):
       0.089 -0.000  0.000  0.000 -0.000 -0.000  0.088
      -0.000  0.037  0.000 -0.000  0.007 -0.000 -0.000
       0.000  0.000  0.037  0.007 -0.000  0.000  0.000
       0.000 -0.000  0.007  0.066  0.000 -0.000  0.000
      -0.000  0.007 -0.000  0.000  0.066 -0.000  0.000
      -0.000 -0.000  0.000 -0.000 -0.000  0.038 -0.000
       0.088 -0.000  0.000  0.000  0.000 -0.000  0.157
     SPIN  2
     eigenvalues:
       0.029  0.035  0.035  0.038  0.068  0.068  0.217
     eigenvectors (columns):
       0.824 -0.002  0.001 -0.000 -0.001  0.000  0.566
       0.003  0.819 -0.524 -0.001  0.231  0.033 -0.000
      -0.000 -0.524 -0.819 -0.003 -0.034  0.231  0.000
      -0.000  0.126  0.196 -0.000 -0.140  0.962  0.000
       0.000 -0.197  0.126 -0.001  0.962  0.140 -0.000
      -0.000  0.001  0.002 -1.000 -0.000 -0.001 -0.000
      -0.566  0.002 -0.001 -0.000  0.001 -0.000  0.824
     occupation matrix ns (before diag.):
       0.089 -0.000  0.000  0.000 -0.000 -0.000  0.088
      -0.000  0.037  0.000 -0.000  0.007 -0.000 -0.000
       0.000  0.000  0.037  0.007 -0.000  0.000  0.000
       0.000 -0.000  0.007  0.066  0.000 -0.000  0.000
      -0.000  0.007 -0.000  0.000  0.066 -0.000  0.000
      -0.000 -0.000  0.000 -0.000 -0.000  0.038 -0.000
       0.088 -0.000  0.000  0.000  0.000 -0.000  0.157
     --------------------- ATOM   38 ----------------------
     Tr[ns] (up, down, total) =   0.48965  0.48987  0.97952
     Atomic magnetic moment =  -0.00021
     SPIN  1
     eigenvalues:
       0.029  0.035  0.035  0.038  0.068  0.068  0.217
     eigenvectors (columns):
       0.824  0.001  0.011  0.000  0.001 -0.000  0.566
       0.012 -0.543 -0.807  0.002 -0.206  0.108 -0.000
      -0.006 -0.808  0.542  0.003  0.110  0.203  0.000
       0.000  0.191 -0.130 -0.001  0.457  0.859  0.000
      -0.001  0.128  0.194 -0.001 -0.858  0.458 -0.000
       0.000 -0.004  0.000 -1.000  0.000 -0.000  0.000
      -0.566 -0.001 -0.007 -0.000 -0.002 -0.000  0.824
     occupation matrix ns (before diag.):
       0.089 -0.000  0.000  0.000 -0.000  0.000  0.088
      -0.000  0.037 -0.000 -0.000  0.007 -0.000  0.000
       0.000 -0.000  0.037  0.007 -0.000 -0.000 -0.000
       0.000 -0.000  0.007  0.066  0.000 -0.000  0.000
      -0.000  0.007 -0.000  0.000  0.066 -0.000 -0.000
       0.000 -0.000 -0.000 -0.000 -0.000  0.038  0.000
       0.088  0.000 -0.000  0.000 -0.000  0.000  0.157
     SPIN  2
     eigenvalues:
       0.029  0.035  0.035  0.038  0.068  0.068  0.217
     eigenvectors (columns):
       0.824  0.001  0.011  0.000  0.001 -0.000  0.566
       0.012 -0.549 -0.803  0.002 -0.207  0.107 -0.000
      -0.006 -0.804  0.548  0.003  0.110  0.203  0.000
       0.000  0.190 -0.132 -0.001  0.455  0.860  0.000
      -0.001  0.130  0.193 -0.001 -0.859  0.455 -0.000
       0.000 -0.004  0.000 -1.000  0.000 -0.000  0.000
      -0.566 -0.001 -0.007 -0.000 -0.002 -0.000  0.824
     occupation matrix ns (before diag.):
       0.089 -0.000  0.000  0.000 -0.000  0.000  0.088
      -0.000  0.037 -0.000 -0.000  0.007 -0.000  0.000
       0.000 -0.000  0.037  0.007 -0.000 -0.000 -0.000
       0.000 -0.000  0.007  0.066  0.000 -0.000  0.000
      -0.000  0.007 -0.000  0.000  0.066 -0.000 -0.000
       0.000 -0.000 -0.000 -0.000 -0.000  0.038  0.000
       0.088  0.000 -0.000  0.000 -0.000  0.000  0.157
     --------------------- ATOM   39 ----------------------
     Tr[ns] (up, down, total) =   0.48956  0.48993  0.97949
     Atomic magnetic moment =  -0.00038
     SPIN  1
     eigenvalues:
       0.029  0.035  0.035  0.038  0.068  0.068  0.217
     eigenvectors (columns):
      -0.824  0.003 -0.005 -0.001  0.000  0.001  0.566
       0.008  0.303 -0.924  0.004 -0.104  0.210  0.000
       0.001  0.924  0.303  0.002  0.207  0.103 -0.001
      -0.000 -0.220 -0.072 -0.001  0.872  0.430 -0.001
      -0.001 -0.074  0.222  0.000 -0.430  0.872 -0.001
       0.001  0.003 -0.003 -1.000 -0.001  0.001 -0.000
       0.566 -0.002  0.004  0.001  0.001  0.000  0.824
     occupation matrix ns (before diag.):
       0.089  0.000 -0.000 -0.000 -0.000 -0.000  0.087
       0.000  0.037 -0.000  0.000  0.007 -0.000 -0.000
      -0.000 -0.000  0.037  0.007  0.000 -0.000 -0.000
      -0.000  0.000  0.007  0.066  0.000 -0.000 -0.000
      -0.000  0.007  0.000  0.000  0.066  0.000 -0.000
      -0.000 -0.000 -0.000 -0.000  0.000  0.038 -0.000
       0.087 -0.000 -0.000 -0.000 -0.000 -0.000  0.156
     SPIN  2
     eigenvalues:
       0.029  0.035  0.035  0.038  0.068  0.068  0.217
     eigenvectors (columns):
      -0.824  0.003 -0.005 -0.001  0.000  0.001  0.566
       0.008  0.305 -0.923  0.004 -0.104  0.209  0.000
       0.001  0.924  0.306  0.002  0.207  0.104 -0.001
      -0.000 -0.220 -0.073 -0.001  0.871  0.434 -0.001
      -0.001 -0.074  0.222  0.000 -0.434  0.870 -0.001
       0.001  0.004 -0.003 -1.000 -0.001  0.001 -0.000
       0.566 -0.002  0.004  0.001  0.001  0.000  0.824
     occupation matrix ns (before diag.):
       0.089  0.000 -0.000 -0.000 -0.000 -0.000  0.088
       0.000  0.037 -0.000  0.000  0.007 -0.000  0.000
      -0.000 -0.000  0.037  0.007  0.000 -0.000 -0.000
      -0.000  0.000  0.007  0.066  0.000 -0.000 -0.000
      -0.000  0.007  0.000  0.000  0.066  0.000 -0.000
      -0.000 -0.000 -0.000 -0.000  0.000  0.038 -0.000
       0.088  0.000 -0.000 -0.000 -0.000 -0.000  0.157
     --------------------- ATOM   40 ----------------------
     Tr[ns] (up, down, total) =   0.48986  0.49003  0.97989
     Atomic magnetic moment =  -0.00017
     SPIN  1
     eigenvalues:
       0.029  0.035  0.035  0.038  0.068  0.068  0.217
     eigenvectors (columns):
      -0.825 -0.002  0.021  0.000  0.001  0.000  0.565
       0.008 -0.946  0.226  0.005  0.072 -0.219  0.000
       0.025  0.226  0.946 -0.003  0.220  0.073  0.002
      -0.004 -0.055 -0.225  0.000  0.922  0.309 -0.000
      -0.002  0.224 -0.054 -0.002  0.309 -0.923 -0.001
       0.000  0.006  0.002  1.000  0.001 -0.001  0.000
       0.565  0.001 -0.016 -0.000 -0.001 -0.001  0.825
     occupation matrix ns (before diag.):
       0.089  0.000  0.000 -0.000 -0.000  0.000  0.088
       0.000  0.037  0.000 -0.000  0.007  0.000  0.000
       0.000  0.000  0.037  0.007  0.000 -0.000  0.000
      -0.000 -0.000  0.007  0.066 -0.000  0.000 -0.000
      -0.000  0.007  0.000 -0.000  0.066  0.000 -0.000
       0.000  0.000 -0.000  0.000  0.000  0.038  0.000
       0.088  0.000  0.000 -0.000 -0.000  0.000  0.157
     SPIN  2
     eigenvalues:
       0.029  0.035  0.035  0.038  0.068  0.068  0.217
     eigenvectors (columns):
      -0.825 -0.002  0.021  0.000  0.001  0.000  0.565
       0.008 -0.946  0.228  0.005  0.069 -0.220  0.000
       0.025  0.228  0.945 -0.003  0.221  0.071  0.002
      -0.004 -0.056 -0.225  0.000  0.926  0.297 -0.000
      -0.002  0.224 -0.054 -0.002  0.297 -0.926 -0.001
       0.000  0.006  0.002  1.000  0.001 -0.001  0.000
       0.565  0.001 -0.016 -0.000 -0.001 -0.001  0.825
     occupation matrix ns (before diag.):
       0.089  0.000  0.000 -0.000 -0.000  0.000  0.088
       0.000  0.037  0.000 -0.000  0.007  0.000  0.000
       0.000  0.000  0.037  0.007  0.000 -0.000  0.000
      -0.000 -0.000  0.007  0.066 -0.000  0.000 -0.000
      -0.000  0.007  0.000 -0.000  0.066  0.000 -0.000
       0.000  0.000 -0.000  0.000  0.000  0.038  0.000
       0.088  0.000  0.000 -0.000 -0.000  0.000  0.157
     --------------------- ATOM   41 ----------------------
     Tr[ns] (up, down, total) =   0.48953  0.48966  0.97919
     Atomic magnetic moment =  -0.00013
     SPIN  1
     eigenvalues:
       0.029  0.035  0.035  0.038  0.067  0.068  0.217
     eigenvectors (columns):
      -0.823  0.027  0.014 -0.006  0.005  0.003  0.567
      -0.025 -0.930  0.290 -0.007 -0.226  0.014  0.003
      -0.025 -0.291 -0.927 -0.006 -0.003 -0.234  0.002
       0.005  0.066  0.224 -0.001 -0.045 -0.971  0.005
       0.003  0.214 -0.074  0.012 -0.973  0.043  0.004
      -0.006 -0.010 -0.002  1.000  0.010 -0.003  0.001
       0.567 -0.016 -0.009  0.002  0.002  0.004  0.824
     occupation matrix ns (before diag.):
       0.089  0.000  0.000  0.000  0.000  0.000  0.088
       0.000  0.037 -0.000 -0.000  0.007 -0.000  0.001
       0.000 -0.000  0.037  0.008 -0.000 -0.000  0.000
       0.000 -0.000  0.008  0.067  0.000  0.000  0.001
       0.000  0.007 -0.000  0.000  0.066 -0.000  0.001
       0.000 -0.000 -0.000  0.000 -0.000  0.038  0.000
       0.088  0.001  0.000  0.001  0.001  0.000  0.156
     SPIN  2
     eigenvalues:
       0.029  0.035  0.035  0.038  0.067  0.068  0.217
     eigenvectors (columns):
      -0.823  0.027  0.014 -0.006  0.005  0.003  0.567
      -0.025 -0.930  0.290 -0.007 -0.226  0.014  0.003
      -0.025 -0.291 -0.927 -0.006 -0.004 -0.234  0.002
       0.005  0.066  0.224 -0.001 -0.047 -0.971  0.005
       0.003  0.214 -0.074  0.012 -0.973  0.044  0.004
      -0.006 -0.011 -0.002  1.000  0.010 -0.003  0.001
       0.567 -0.016 -0.009  0.002  0.002  0.004  0.824
     occupation matrix ns (before diag.):
       0.089  0.000  0.000  0.000  0.000  0.000  0.088
       0.000  0.037 -0.000 -0.000  0.007 -0.000  0.001
       0.000 -0.000  0.037  0.008 -0.000 -0.000  0.000
       0.000 -0.000  0.008  0.067  0.000  0.000  0.001
       0.000  0.007 -0.000  0.000  0.066 -0.000  0.001
       0.000 -0.000 -0.000  0.000 -0.000  0.038  0.000
       0.088  0.001  0.000  0.001  0.001  0.000  0.156
     --------------------- ATOM   42 ----------------------
     Tr[ns] (up, down, total) =   0.48964  0.48982  0.97946
     Atomic magnetic moment =  -0.00018
     SPIN  1
     eigenvalues:
       0.029  0.035  0.035  0.038  0.068  0.068  0.217
     eigenvectors (columns):
      -0.824 -0.001 -0.011 -0.001 -0.001 -0.001  0.567
      -0.004  0.959  0.157 -0.002 -0.124  0.198  0.000
       0.014  0.158 -0.959  0.002 -0.197 -0.126  0.001
      -0.002 -0.037  0.231  0.001 -0.821 -0.521 -0.000
       0.000 -0.231 -0.038  0.000 -0.521  0.821  0.001
       0.001 -0.002 -0.002 -1.000 -0.001 -0.001 -0.000
       0.566  0.001  0.009  0.000  0.001  0.000  0.824
     occupation matrix ns (before diag.):
       0.089  0.000  0.000  0.000  0.000 -0.000  0.087
       0.000  0.037 -0.000 -0.000  0.007  0.000  0.000
       0.000 -0.000  0.037  0.007 -0.000  0.000  0.000
       0.000 -0.000  0.007  0.066 -0.000  0.000 -0.000
       0.000  0.007 -0.000 -0.000  0.066 -0.000  0.000
      -0.000  0.000  0.000  0.000 -0.000  0.038 -0.000
       0.087  0.000  0.000 -0.000  0.000 -0.000  0.156
     SPIN  2
     eigenvalues:
       0.029  0.035  0.035  0.038  0.068  0.068  0.217
     eigenvectors (columns):
      -0.824  0.001 -0.011 -0.001  0.001  0.001  0.567
      -0.004 -0.958  0.166 -0.002  0.124 -0.198  0.000
       0.014 -0.167 -0.958  0.002  0.197  0.126  0.001
      -0.002  0.039  0.231  0.001  0.821  0.521 -0.000
       0.000  0.231 -0.040  0.001  0.522 -0.821  0.001
       0.001  0.002 -0.003 -1.000  0.001  0.001 -0.000
       0.566 -0.000  0.009  0.000 -0.001 -0.000  0.824
     occupation matrix ns (before diag.):
       0.089  0.000  0.000  0.000  0.000 -0.000  0.088
       0.000  0.037 -0.000 -0.000  0.007  0.000  0.000
       0.000 -0.000  0.037  0.007 -0.000  0.000  0.000
       0.000 -0.000  0.007  0.066 -0.000  0.000 -0.000
       0.000  0.007 -0.000 -0.000  0.066 -0.000  0.000
      -0.000  0.000  0.000  0.000 -0.000  0.038 -0.000
       0.088  0.000  0.000 -0.000  0.000 -0.000  0.157
     --------------------- ATOM   43 ----------------------
     Tr[ns] (up, down, total) =   0.48947  0.48973  0.97920
     Atomic magnetic moment =  -0.00026
     SPIN  1
     eigenvalues:
       0.029  0.035  0.035  0.038  0.067  0.068  0.217
     eigenvectors (columns):
       0.823  0.030 -0.006  0.006  0.006  0.003  0.567
      -0.001 -0.158 -0.959 -0.001 -0.107  0.209 -0.000
      -0.035  0.961 -0.158 -0.010  0.197  0.102 -0.004
       0.005 -0.219  0.035  0.010  0.871  0.439 -0.006
       0.002  0.036  0.232 -0.007 -0.437  0.868 -0.002
      -0.006  0.012 -0.001  1.000 -0.010  0.003 -0.001
      -0.566 -0.017  0.004 -0.002  0.002  0.004  0.824
     occupation matrix ns (before diag.):
       0.089 -0.000 -0.000 -0.000 -0.000 -0.000  0.088
      -0.000  0.037  0.000  0.000  0.008  0.000 -0.000
      -0.000  0.000  0.036  0.007  0.000 -0.000 -0.001
      -0.000  0.000  0.007  0.066  0.000 -0.000 -0.001
      -0.000  0.008  0.000  0.000  0.066  0.000 -0.000
      -0.000  0.000 -0.000 -0.000  0.000  0.038 -0.000
       0.088 -0.000 -0.001 -0.001 -0.000 -0.000  0.156
     SPIN  2
     eigenvalues:
       0.029  0.035  0.035  0.038  0.067  0.068  0.217
     eigenvectors (columns):
       0.823  0.030 -0.006  0.006  0.006  0.003  0.567
      -0.001 -0.158 -0.959 -0.001 -0.107  0.209 -0.000
      -0.035  0.961 -0.158 -0.011  0.197  0.102 -0.004
       0.005 -0.219  0.035  0.010  0.871  0.439 -0.006
       0.002  0.036  0.232 -0.007 -0.438  0.868 -0.002
      -0.006  0.012 -0.002  1.000 -0.010  0.003 -0.001
      -0.566 -0.017  0.004 -0.002  0.002  0.004  0.824
     occupation matrix ns (before diag.):
       0.089 -0.000 -0.000 -0.000 -0.000 -0.000  0.088
      -0.000  0.037  0.000  0.000  0.008  0.000 -0.000
      -0.000  0.000  0.036  0.007  0.000 -0.000 -0.001
      -0.000  0.000  0.007  0.066  0.000 -0.000 -0.001
      -0.000  0.008  0.000  0.000  0.066  0.000 -0.000
      -0.000  0.000 -0.000 -0.000  0.000  0.038 -0.000
       0.088 -0.000 -0.001 -0.001 -0.000 -0.000  0.157
     --------------------- ATOM   44 ----------------------
     Tr[ns] (up, down, total) =   0.49050  0.49063  0.98113
     Atomic magnetic moment =  -0.00013
     SPIN  1
     eigenvalues:
       0.029  0.035  0.035  0.038  0.067  0.069  0.217
     eigenvectors (columns):
       0.824 -0.011 -0.026  0.001  0.003  0.001  0.566
      -0.036 -0.509 -0.829  0.010  0.200  0.114  0.004
      -0.007  0.827 -0.510 -0.011  0.110 -0.208  0.002
      -0.002 -0.202  0.120 -0.002  0.469 -0.851  0.004
       0.001  0.123  0.194  0.001  0.853  0.468  0.004
      -0.000  0.013  0.003  1.000 -0.001 -0.006 -0.000
      -0.565  0.008  0.021 -0.000 -0.010  0.000  0.824
     occupation matrix ns (before diag.):
       0.089  0.001  0.000  0.000  0.001 -0.000  0.088
       0.001  0.037 -0.000 -0.000  0.007  0.000  0.000
       0.000 -0.000  0.037  0.008 -0.000  0.000  0.000
       0.000 -0.000  0.008  0.067 -0.001  0.000  0.000
       0.001  0.007 -0.000 -0.001  0.066 -0.000  0.000
      -0.000  0.000  0.000  0.000 -0.000  0.038 -0.000
       0.088  0.000  0.000  0.000  0.000 -0.000  0.157
     SPIN  2
     eigenvalues:
       0.029  0.035  0.035  0.038  0.067  0.069  0.217
     eigenvectors (columns):
       0.824 -0.011 -0.026  0.000  0.003  0.001  0.566
      -0.036 -0.509 -0.829  0.010  0.200  0.114  0.004
      -0.007  0.827 -0.510 -0.011  0.110 -0.208  0.002
      -0.002 -0.202  0.120 -0.002  0.469 -0.851  0.004
       0.001  0.123  0.194  0.001  0.853  0.468  0.004
      -0.000  0.013  0.003  1.000 -0.001 -0.006 -0.000
      -0.565  0.008  0.021 -0.000 -0.010  0.000  0.825
     occupation matrix ns (before diag.):
       0.089  0.001  0.000  0.000  0.001 -0.000  0.088
       0.001  0.037 -0.000 -0.000  0.007  0.000  0.000
       0.000 -0.000  0.037  0.008 -0.000  0.000  0.000
       0.000 -0.000  0.008  0.067 -0.001  0.000  0.000
       0.001  0.007 -0.000 -0.001  0.066 -0.000  0.000
      -0.000  0.000  0.000  0.000 -0.000  0.038 -0.000
       0.088  0.000  0.000  0.000  0.000 -0.000  0.157
     --------------------- ATOM   45 ----------------------
     Tr[ns] (up, down, total) =   0.49003  0.48991  0.97994
     Atomic magnetic moment =   0.00012
     SPIN  1
     eigenvalues:
       0.029  0.035  0.035  0.038  0.068  0.068  0.217
     eigenvectors (columns):
      -0.824 -0.003 -0.024  0.000 -0.001  0.001  0.565
       0.020 -0.789 -0.568 -0.006 -0.073  0.221  0.001
      -0.022 -0.569  0.789 -0.002  0.218  0.072 -0.002
       0.004  0.133 -0.187  0.002  0.925  0.301 -0.000
      -0.003  0.189  0.135  0.001 -0.301  0.925  0.000
       0.000 -0.006 -0.001  1.000 -0.001 -0.000  0.000
       0.565  0.002  0.019 -0.000  0.001 -0.001  0.825
     occupation matrix ns (before diag.):
       0.089  0.000 -0.000 -0.000  0.000  0.000  0.088
       0.000  0.037 -0.000 -0.000  0.007 -0.000  0.000
      -0.000 -0.000  0.037  0.007  0.000 -0.000 -0.000
      -0.000 -0.000  0.007  0.066  0.000 -0.000 -0.000
       0.000  0.007  0.000  0.000  0.066  0.000 -0.000
       0.000 -0.000 -0.000 -0.000  0.000  0.038  0.000
       0.088  0.000 -0.000 -0.000 -0.000  0.000  0.157
     SPIN  2
     eigenvalues:
       0.029  0.035  0.035  0.038  0.068  0.068  0.217
     eigenvectors (columns):
      -0.824 -0.003 -0.024  0.000 -0.001  0.001  0.565
       0.020 -0.788 -0.570 -0.006 -0.075  0.220  0.001
      -0.022 -0.570  0.788 -0.003  0.217  0.073 -0.002
       0.004  0.134 -0.187  0.002  0.923  0.308 -0.000
      -0.003  0.189  0.135  0.001 -0.308  0.923  0.000
       0.000 -0.006 -0.001  1.000 -0.001 -0.000  0.000
       0.565  0.002  0.019 -0.000  0.001 -0.001  0.825
     occupation matrix ns (before diag.):
       0.089  0.000 -0.000 -0.000  0.000  0.000  0.088
       0.000  0.037 -0.000 -0.000  0.007 -0.000  0.000
      -0.000 -0.000  0.037  0.007  0.000 -0.000 -0.000
      -0.000 -0.000  0.007  0.066  0.000 -0.000 -0.000
       0.000  0.007  0.000  0.000  0.066  0.000 -0.000
       0.000 -0.000 -0.000 -0.000  0.000  0.038  0.000
       0.088  0.000 -0.000 -0.000 -0.000  0.000  0.157
     --------------------- ATOM   46 ----------------------
     Tr[ns] (up, down, total) =   0.48932  0.48987  0.97919
     Atomic magnetic moment =  -0.00055
     SPIN  1
     eigenvalues:
       0.025  0.034  0.034  0.039  0.068  0.069  0.220
     eigenvectors (columns):
      -0.814  0.002 -0.145  0.000  0.007 -0.019  0.562
      -0.159 -0.488  0.833  0.006  0.032  0.202 -0.007
       0.088 -0.852 -0.478  0.008  0.188 -0.046  0.003
      -0.007  0.164  0.104 -0.004  0.962 -0.192 -0.002
       0.013  0.095 -0.182 -0.004  0.195  0.959  0.000
       0.000  0.010 -0.002  1.000  0.003  0.002 -0.000
       0.552 -0.002  0.108  0.000 -0.003  0.014  0.827
     occupation matrix ns (before diag.):
       0.087 -0.002  0.001  0.000 -0.000 -0.000  0.091
      -0.002  0.036 -0.000 -0.000  0.007  0.000 -0.000
       0.001 -0.000  0.035  0.007 -0.000  0.000 -0.000
       0.000 -0.000  0.007  0.067  0.000  0.000 -0.000
      -0.000  0.007 -0.000  0.000  0.067  0.000  0.000
      -0.000  0.000  0.000  0.000  0.000  0.039 -0.000
       0.091 -0.000 -0.000 -0.000  0.000 -0.000  0.158
     SPIN  2
     eigenvalues:
       0.025  0.034  0.034  0.039  0.069  0.069  0.220
     eigenvectors (columns):
      -0.814  0.002 -0.145  0.000  0.007 -0.019  0.562
      -0.159 -0.488  0.833  0.006  0.032  0.202 -0.007
       0.088 -0.852 -0.478  0.008  0.188 -0.046  0.003
      -0.007  0.164  0.104 -0.004  0.962 -0.192 -0.002
       0.013  0.095 -0.182 -0.004  0.195  0.959  0.000
       0.000  0.010 -0.002  1.000  0.003  0.002 -0.000
       0.552 -0.002  0.108  0.000 -0.003  0.014  0.827
     occupation matrix ns (before diag.):
       0.087 -0.002  0.001  0.000 -0.000 -0.000  0.091
      -0.002  0.036 -0.000 -0.000  0.007  0.000 -0.000
       0.001 -0.000  0.035  0.007 -0.000  0.000 -0.000
       0.000 -0.000  0.007  0.067  0.000  0.000 -0.000
      -0.000  0.007 -0.000  0.000  0.067  0.000  0.000
      -0.000  0.000  0.000  0.000  0.000  0.039 -0.000
       0.091 -0.000 -0.000 -0.000  0.000 -0.000  0.159
     --------------------- ATOM   47 ----------------------
     Tr[ns] (up, down, total) =   0.48956  0.48968  0.97924
     Atomic magnetic moment =  -0.00013
     SPIN  1
     eigenvalues:
       0.029  0.035  0.035  0.038  0.067  0.068  0.217
     eigenvectors (columns):
       0.824 -0.025 -0.013 -0.005  0.005  0.003  0.566
       0.031  0.724  0.651 -0.010 -0.113 -0.196  0.004
       0.008  0.652 -0.721 -0.003 -0.194  0.126  0.002
       0.001 -0.149  0.177  0.011 -0.826  0.514  0.001
      -0.005 -0.165 -0.155  0.006 -0.517 -0.825  0.007
      -0.006 -0.011 -0.003 -1.000 -0.010  0.002 -0.001
      -0.566  0.014  0.008  0.002  0.003  0.005  0.824
     occupation matrix ns (before diag.):
       0.089  0.000  0.000  0.000  0.001 -0.000  0.088
       0.000  0.037 -0.000 -0.000  0.007  0.000  0.001
       0.000 -0.000  0.037  0.007 -0.000  0.000  0.000
       0.000 -0.000  0.007  0.066 -0.000  0.000  0.000
       0.001  0.007 -0.000 -0.000  0.066  0.000  0.001
      -0.000  0.000  0.000  0.000  0.000  0.038 -0.000
       0.088  0.001  0.000  0.000  0.001 -0.000  0.157
     SPIN  2
     eigenvalues:
       0.029  0.035  0.035  0.038  0.067  0.068  0.217
     eigenvectors (columns):
       0.824 -0.025 -0.013 -0.005  0.005  0.003  0.566
       0.031  0.724  0.651 -0.010 -0.113 -0.196  0.004
       0.007  0.652 -0.721 -0.003 -0.194  0.127  0.002
       0.001 -0.149  0.177  0.011 -0.826  0.514  0.001
      -0.005 -0.165 -0.155  0.006 -0.517 -0.825  0.007
      -0.006 -0.012 -0.003 -1.000 -0.010  0.002 -0.001
      -0.566  0.014  0.009  0.002  0.003  0.005  0.824
     occupation matrix ns (before diag.):
       0.089  0.000  0.000  0.000  0.001 -0.000  0.088
       0.000  0.037 -0.000 -0.000  0.007  0.000  0.001
       0.000 -0.000  0.037  0.007 -0.000  0.000  0.000
       0.000 -0.000  0.007  0.066 -0.000  0.000  0.000
       0.001  0.007 -0.000 -0.000  0.066  0.000  0.001
      -0.000  0.000  0.000  0.000  0.000  0.038 -0.000
       0.088  0.001  0.000  0.000  0.001 -0.000  0.157
     --------------------- ATOM   48 ----------------------
     Tr[ns] (up, down, total) =   0.49058  0.49072  0.98129
     Atomic magnetic moment =  -0.00014
     SPIN  1
     eigenvalues:
       0.028  0.035  0.035  0.038  0.067  0.069  0.217
     eigenvectors (columns):
       0.824  0.004 -0.042  0.000 -0.005  0.000  0.566
       0.005 -0.972 -0.011 -0.012  0.000 -0.234 -0.000
       0.053 -0.010  0.972 -0.001  0.229  0.000 -0.004
      -0.003  0.002 -0.229 -0.000  0.973  0.002 -0.003
      -0.001  0.235  0.003 -0.002  0.002 -0.972  0.000
      -0.000 -0.012  0.000  1.000  0.000 -0.004 -0.000
      -0.565 -0.003  0.032 -0.000  0.008 -0.000  0.825
     occupation matrix ns (before diag.):
       0.089 -0.000 -0.001 -0.000 -0.000 -0.000  0.088
      -0.000  0.037 -0.000 -0.000  0.008 -0.000 -0.000
      -0.001 -0.000  0.037  0.007 -0.000 -0.000 -0.000
      -0.000 -0.000  0.007  0.066 -0.000  0.000 -0.000
      -0.000  0.008 -0.000 -0.000  0.067  0.000  0.000
      -0.000 -0.000 -0.000  0.000  0.000  0.038 -0.000
       0.088 -0.000 -0.000 -0.000  0.000 -0.000  0.157
     SPIN  2
     eigenvalues:
       0.028  0.035  0.035  0.038  0.067  0.069  0.217
     eigenvectors (columns):
       0.824  0.004 -0.042  0.000 -0.005  0.000  0.566
       0.005 -0.972 -0.012 -0.012  0.000 -0.234 -0.000
       0.053 -0.011  0.972 -0.001  0.228  0.001 -0.004
      -0.003  0.003 -0.229 -0.000  0.973  0.002 -0.003
      -0.001  0.234  0.003 -0.002  0.002 -0.972  0.000
      -0.000 -0.012  0.001  1.000  0.000 -0.004 -0.000
      -0.565 -0.003  0.032 -0.000  0.008 -0.000  0.825
     occupation matrix ns (before diag.):
       0.089 -0.000 -0.001 -0.000 -0.000 -0.000  0.088
      -0.000  0.037 -0.000 -0.000  0.008 -0.000  0.000
      -0.001 -0.000  0.037  0.007 -0.000 -0.000 -0.000
      -0.000 -0.000  0.007  0.066 -0.000  0.000 -0.000
      -0.000  0.008 -0.000 -0.000  0.067  0.000  0.000
      -0.000 -0.000 -0.000  0.000  0.000  0.038 -0.000
       0.088  0.000 -0.000 -0.000  0.000 -0.000  0.157
     --------------------- ATOM   49 ----------------------
     Tr[ns] (up, down, total) =   0.48926  0.49000  0.97925
     Atomic magnetic moment =  -0.00074
     SPIN  1
     eigenvalues:
       0.025  0.034  0.035  0.039  0.068  0.069  0.220
     eigenvectors (columns):
       0.812 -0.001 -0.152  0.000 -0.001  0.022  0.562
       0.006  0.982  0.019 -0.006 -0.188 -0.016 -0.000
       0.191 -0.020  0.958 -0.001  0.017 -0.210 -0.008
      -0.014  0.004 -0.212  0.000  0.079 -0.974  0.002
      -0.000 -0.189 -0.004  0.005 -0.979 -0.079 -0.000
       0.000  0.007  0.001  1.000  0.004  0.000  0.000
      -0.551  0.001  0.114 -0.000  0.001 -0.015  0.827
     occupation matrix ns (before diag.):
       0.087 -0.000 -0.003 -0.000 -0.000  0.000  0.090
      -0.000  0.035  0.000  0.000  0.006 -0.000 -0.000
      -0.003  0.000  0.036  0.007  0.000 -0.000 -0.000
      -0.000  0.000  0.007  0.067  0.000 -0.000  0.001
      -0.000  0.006  0.000  0.000  0.067 -0.000 -0.000
       0.000 -0.000 -0.000 -0.000 -0.000  0.039  0.000
       0.090 -0.000 -0.000  0.001 -0.000  0.000  0.158
     SPIN  2
     eigenvalues:
       0.025  0.034  0.035  0.039  0.069  0.069  0.220
     eigenvectors (columns):
       0.812 -0.001 -0.152  0.000 -0.001  0.022  0.562
       0.006  0.982  0.019 -0.006 -0.188 -0.015 -0.000
       0.191 -0.020  0.958 -0.001  0.016 -0.210 -0.008
      -0.014  0.004 -0.212  0.000  0.077 -0.974  0.002
      -0.000 -0.189 -0.004  0.005 -0.979 -0.078 -0.000
       0.000  0.007  0.001  1.000  0.004  0.000  0.000
      -0.551  0.001  0.114 -0.000  0.000 -0.015  0.827
     occupation matrix ns (before diag.):
       0.087 -0.000 -0.003 -0.000 -0.000  0.000  0.091
      -0.000  0.035  0.000  0.000  0.006 -0.000 -0.000
      -0.003  0.000  0.036  0.007  0.000 -0.000 -0.000
      -0.000  0.000  0.007  0.067  0.000 -0.000  0.001
      -0.000  0.006  0.000  0.000  0.067 -0.000 -0.000
       0.000 -0.000 -0.000 -0.000 -0.000  0.039  0.000
       0.091 -0.000 -0.000  0.001 -0.000  0.000  0.159
     --------------------- ATOM   50 ----------------------
     Tr[ns] (up, down, total) =   0.48954  0.48993  0.97947
     Atomic magnetic moment =  -0.00038
     SPIN  1
     eigenvalues:
       0.029  0.035  0.035  0.038  0.067  0.068  0.217
     eigenvectors (columns):
      -0.824  0.002  0.005 -0.000 -0.001  0.000  0.567
      -0.002 -0.958  0.169 -0.003  0.012 -0.231  0.000
      -0.007 -0.169 -0.957  0.000  0.235  0.013  0.000
       0.000  0.041  0.232  0.000  0.971  0.051 -0.001
       0.000  0.228 -0.040  0.001  0.051 -0.972  0.000
       0.000  0.003 -0.001 -1.000  0.000 -0.000 -0.000
       0.567 -0.002 -0.003  0.000  0.001  0.000  0.824
     occupation matrix ns (before diag.):
       0.089 -0.000 -0.000 -0.000  0.000 -0.000  0.088
      -0.000  0.037 -0.000 -0.000  0.007  0.000  0.000
      -0.000 -0.000  0.037  0.007 -0.000  0.000  0.000
      -0.000 -0.000  0.007  0.066 -0.000  0.000 -0.000
       0.000  0.007 -0.000 -0.000  0.066  0.000  0.000
      -0.000  0.000  0.000  0.000  0.000  0.038 -0.000
       0.088  0.000  0.000 -0.000  0.000 -0.000  0.156
     SPIN  2
     eigenvalues:
       0.029  0.035  0.035  0.038  0.068  0.068  0.217
     eigenvectors (columns):
      -0.824  0.002 -0.005 -0.000 -0.001  0.000  0.566
      -0.002 -0.956 -0.179 -0.003  0.012 -0.231  0.000
      -0.007 -0.179  0.955  0.000  0.235  0.013  0.000
       0.000  0.043 -0.231  0.000  0.971  0.052 -0.001
       0.000  0.227  0.043  0.001  0.052 -0.972  0.000
       0.000  0.003  0.001 -1.000  0.000 -0.000 -0.000
       0.566 -0.002  0.003  0.000  0.001  0.000  0.824
     occupation matrix ns (before diag.):
       0.089 -0.000 -0.000 -0.000  0.000 -0.000  0.088
      -0.000  0.037 -0.000 -0.000  0.007  0.000  0.000
      -0.000 -0.000  0.037  0.007 -0.000  0.000  0.000
      -0.000 -0.000  0.007  0.066 -0.000  0.000 -0.000
       0.000  0.007 -0.000 -0.000  0.066  0.000  0.000
      -0.000  0.000  0.000  0.000  0.000  0.038 -0.000
       0.088  0.000  0.000 -0.000  0.000 -0.000  0.157
     --------------------- ATOM   51 ----------------------
     Tr[ns] (up, down, total) =   0.48898  0.48997  0.97895
     Atomic magnetic moment =  -0.00098
     SPIN  1
     eigenvalues:
       0.025  0.034  0.034  0.039  0.068  0.069  0.219
     eigenvectors (columns):
      -0.814 -0.003 -0.143 -0.000  0.005 -0.018  0.563
       0.157 -0.490 -0.832 -0.006 -0.042 -0.201  0.007
       0.086  0.850 -0.481  0.009  0.188 -0.055  0.003
      -0.008 -0.165  0.105 -0.004  0.952 -0.236 -0.001
      -0.013  0.096  0.183  0.003 -0.239 -0.949  0.000
      -0.000  0.012  0.001 -1.000 -0.002 -0.001  0.000
       0.553  0.003  0.106  0.000 -0.002  0.014  0.826
     occupation matrix ns (before diag.):
       0.087  0.002  0.001  0.000  0.000  0.000  0.090
       0.002  0.036  0.000  0.000  0.007  0.000  0.000
       0.001  0.000  0.035  0.007  0.000 -0.000  0.000
       0.000  0.000  0.007  0.067 -0.000 -0.000 -0.000
       0.000  0.007  0.000 -0.000  0.067  0.000 -0.000
       0.000  0.000 -0.000 -0.000  0.000  0.039  0.000
       0.090  0.000  0.000 -0.000 -0.000  0.000  0.158
     SPIN  2
     eigenvalues:
       0.025  0.034  0.034  0.039  0.068  0.069  0.220
     eigenvectors (columns):
      -0.814 -0.003 -0.142 -0.000  0.005 -0.018  0.563
       0.156 -0.490 -0.833 -0.006 -0.042 -0.202  0.007
       0.086  0.850 -0.481  0.009  0.188 -0.055  0.003
      -0.008 -0.166  0.105 -0.004  0.952 -0.234 -0.001
      -0.013  0.096  0.183  0.003 -0.237 -0.949  0.000
      -0.000  0.012  0.001 -1.000 -0.002 -0.001  0.000
       0.553  0.003  0.106  0.000 -0.003  0.014  0.826
     occupation matrix ns (before diag.):
       0.087  0.002  0.001  0.000  0.000  0.000  0.091
       0.002  0.036  0.000  0.000  0.007  0.000  0.000
       0.001  0.000  0.035  0.007  0.000 -0.000  0.000
       0.000  0.000  0.007  0.067 -0.000 -0.000 -0.000
       0.000  0.007  0.000 -0.000  0.067  0.000 -0.000
       0.000  0.000 -0.000 -0.000  0.000  0.039  0.000
       0.091  0.000  0.000 -0.000 -0.000  0.000  0.158
     --------------------- ATOM   52 ----------------------
     Tr[ns] (up, down, total) =   0.49003  0.48991  0.97994
     Atomic magnetic moment =   0.00011
     SPIN  1
     eigenvalues:
       0.029  0.035  0.035  0.038  0.068  0.068  0.217
     eigenvectors (columns):
      -0.825 -0.005  0.024 -0.000 -0.001 -0.001  0.565
      -0.022  0.800 -0.552 -0.006  0.065  0.223 -0.001
      -0.022 -0.553 -0.801  0.002  0.220 -0.064 -0.002
       0.004  0.130  0.189 -0.002  0.935 -0.269 -0.000
       0.003 -0.191  0.131  0.001  0.269  0.935 -0.000
      -0.000  0.006 -0.002  1.000  0.001 -0.000 -0.000
       0.565  0.004 -0.019  0.000  0.001  0.001  0.825
     occupation matrix ns (before diag.):
       0.089 -0.000 -0.000 -0.000 -0.000 -0.000  0.088
      -0.000  0.037  0.000  0.000  0.007 -0.000 -0.000
      -0.000  0.000  0.037  0.007 -0.000  0.000 -0.000
      -0.000  0.000  0.007  0.066 -0.000  0.000  0.000
      -0.000  0.007 -0.000 -0.000  0.066  0.000  0.000
      -0.000 -0.000  0.000  0.000  0.000  0.038 -0.000
       0.088 -0.000 -0.000  0.000  0.000 -0.000  0.157
     SPIN  2
     eigenvalues:
       0.029  0.035  0.035  0.038  0.068  0.068  0.217
     eigenvectors (columns):
      -0.825 -0.005  0.024 -0.000 -0.001 -0.001  0.565
      -0.022  0.800 -0.552 -0.006  0.066  0.223 -0.001
      -0.022 -0.553 -0.801  0.002  0.220 -0.065 -0.002
       0.004  0.130  0.189 -0.002  0.935 -0.271 -0.000
       0.003 -0.191  0.131  0.001  0.271  0.934 -0.000
      -0.000  0.006 -0.002  1.000  0.001 -0.000 -0.000
       0.565  0.003 -0.019  0.000  0.001  0.001  0.825
     occupation matrix ns (before diag.):
       0.089 -0.000 -0.000 -0.000 -0.000 -0.000  0.088
      -0.000  0.037  0.000  0.000  0.007 -0.000 -0.000
      -0.000  0.000  0.037  0.007 -0.000  0.000 -0.000
      -0.000  0.000  0.007  0.066 -0.000  0.000  0.000
      -0.000  0.007 -0.000 -0.000  0.066  0.000  0.000
      -0.000 -0.000  0.000  0.000  0.000  0.038 -0.000
       0.088 -0.000 -0.000  0.000  0.000 -0.000  0.157
     --------------------- ATOM   53 ----------------------
     Tr[ns] (up, down, total) =   0.48940  0.48980  0.97920
     Atomic magnetic moment =  -0.00040
     SPIN  1
     eigenvalues:
       0.029  0.035  0.035  0.038  0.067  0.068  0.217
     eigenvectors (columns):
      -0.824  0.028 -0.006  0.005  0.006  0.003  0.567
       0.028  0.745 -0.627 -0.010  0.114  0.196 -0.004
      -0.016 -0.628 -0.743  0.004 -0.194  0.127  0.002
       0.000  0.143  0.182 -0.011 -0.824  0.516  0.001
      -0.005 -0.170  0.149  0.006  0.519  0.824 -0.006
      -0.006 -0.013  0.002 -1.000  0.010 -0.002  0.001
       0.566 -0.016  0.003 -0.002  0.002  0.005  0.824
     occupation matrix ns (before diag.):
       0.089 -0.000  0.000 -0.000 -0.001  0.000  0.088
      -0.000  0.037  0.000  0.000  0.007  0.000 -0.001
       0.000  0.000  0.037  0.007  0.000 -0.000  0.000
      -0.000  0.000  0.007  0.066  0.000 -0.000  0.000
      -0.001  0.007  0.000  0.000  0.066  0.000 -0.001
       0.000  0.000 -0.000 -0.000  0.000  0.038  0.000
       0.088 -0.001  0.000  0.000 -0.001  0.000  0.156
     SPIN  2
     eigenvalues:
       0.029  0.035  0.035  0.038  0.067  0.068  0.217
     eigenvectors (columns):
      -0.824  0.028 -0.006  0.005  0.006  0.003  0.566
       0.028  0.745 -0.626 -0.010  0.114  0.196 -0.004
      -0.015 -0.628 -0.743  0.004 -0.194  0.127  0.002
       0.000  0.143  0.182 -0.011 -0.824  0.516  0.001
      -0.005 -0.170  0.149  0.006  0.519  0.824 -0.006
      -0.006 -0.013  0.002 -1.000  0.010 -0.002  0.001
       0.566 -0.016  0.004 -0.002  0.002  0.005  0.824
     occupation matrix ns (before diag.):
       0.089 -0.000  0.000 -0.000 -0.001  0.000  0.088
      -0.000  0.037  0.000  0.000  0.007  0.000 -0.001
       0.000  0.000  0.037  0.007  0.000 -0.000  0.000
      -0.000  0.000  0.007  0.066  0.000 -0.000  0.000
      -0.001  0.007  0.000  0.000  0.066  0.000 -0.001
       0.000  0.000 -0.000 -0.000  0.000  0.038  0.000
       0.088 -0.001  0.000  0.000 -0.001  0.000  0.157
[...]
    -0.0000  -0.0000  -0.0000  -0.0000  -0.0000  -0.0000  -0.0000  -0.0000
    -0.0000  -0.0000  -0.0000  -0.0000  -0.0000  -0.0000  -0.0000  -0.0000
    -0.0000  -0.0000  -0.0000  -0.0000  -0.0000  -0.0000  -0.0000  -0.0000
    -0.0000  -0.0000  -0.0000  -0.0000  -0.0000  -0.0000  -0.0000  -0.0000
    -0.0000  -0.0000  -0.0000  -0.0000  -0.0000  -0.0000  -0.0000  -0.0000
    -0.0000  -0.0000  -0.0000  -0.0000  -0.0000  -0.0000  -0.0000  -0.0000
    -0.0000  -0.0000  -0.0000  -0.0000  -0.0000  -0.0000  -0.0000  -0.0000
    -0.0000  -0.0000  -0.0000  -0.0000  -0.0000  -0.0000  -0.0000  -0.0000
    -0.0000  -0.0000  -0.0000  -0.0000  -0.0000  -0.0000  -0.0000  -0.0000
    -0.0000  -0.0000  -0.0000  -0.0000  -0.0000  -0.0000  -0.0000  -0.0000
    -0.0000  -0.0000  -0.0000  -0.0000  -0.0000  -0.0000  -0.0000  -0.0000
    -0.0000  -0.0000  -0.0000  -0.0000  -0.0000  -0.0000  -0.0000  -0.0000
    -0.0000  -0.0000  -0.0000  -0.0000  -0.0000  -0.0000  -0.0000  -0.0000
    -0.0000  -0.0000  -0.0000  -0.0000  -0.0000  -0.0000  -0.0000  -0.0000
    -0.0000  -0.0000  -0.0000  -0.0000  -0.0000  -0.0000  -0.0000  -0.0000
    -0.0000  -0.0000  -0.0000  -0.0000  -0.0000  -0.0000  -0.0000  -0.0000
    -0.0000  -0.0000  -0.0000  -0.0000  -0.0000  -0.0000  -0.0000  -0.0000
    -0.0000  -0.0000  -0.0000  -0.0000  -0.0000  -0.0000  -0.0000  -0.0000
    -0.0000  -0.0000  -0.0000  -0.0000  -0.0000  -0.0000  -0.0000  -0.0000
    -0.0000  -0.0000  -0.0000  -0.0000  -0.0000  -0.0000  -0.0000  -0.0000
    -0.0000  -0.0000  -0.0000  -0.0000  -0.0000  -0.0000  -0.0000  -0.0000
    -0.0000  -0.0000  -0.0000  -0.0000  -0.0000  -0.0000  -0.0000  -0.0000
    -0.0000  -0.0000  -0.0000  -0.0000  -0.0000  -0.0000  -0.0000  -0.0000
    -0.0000  -0.0000  -0.0000  -0.0000  -0.0000  -0.0000  -0.0000  -0.0000
    -0.0000  -0.0000  -0.0000  -0.0000  -0.0000  -0.0000  -0.0000  -0.0000
    -0.0000  -0.0000  -0.0000  -0.0000  -0.0000  -0.0000  -0.0000  -0.0000
    -0.0000  -0.0000  -0.0000  -0.0000  -0.0000  -0.0000  -0.0000  -0.0000
    -0.0000  -0.0000  -0.0000  -0.0000  -0.0000  -0.0000  -0.0000  -0.0000
    -0.0000  -0.0000  -0.0000  -0.0000  -0.0000  -0.0000  -0.0000  -0.0000
    -0.0000  -0.0000  -0.0000  -0.0000  -0.0000  -0.0000  -0.0000  -0.0000
    -0.0000  -0.0000  -0.0000  -0.0000  -0.0000  -0.0000  -0.0000  -0.0000
    -0.0000  -0.0000  -0.0000  -0.0000  -0.0000  -0.0000  -0.0000  -0.0000
    -0.0000  -0.0000  -0.0000  -0.0000  -0.0000  -0.0000  -0.0000  -0.0000
    -0.0000  -0.0000  -0.0000  -0.0000  -0.0000  -0.0000  -0.0000  -0.0000
    -0.0000  -0.0000  -0.0000  -0.0000  -0.0000  -0.0000  -0.0000  -0.0000
    -0.0000  -0.0000  -0.0000  -0.0000  -0.0000  -0.0000  -0.0000  -0.0000
    -0.0000  -0.0000  -0.0000  -0.0000  -0.0000  -0.0000  -0.0000  -0.0000
    -0.0000  -0.0000  -0.0000  -0.0000  -0.0000  -0.0000  -0.0000  -0.0000
    -0.0000  -0.0000  -0.0000  -0.0000  -0.0000  -0.0000  -0.0000  -0.0000
    -0.0000  -0.0000  -0.0000  -0.0000  -0.0000  -0.0000  -0.0000  -0.0000
    -0.0000  -0.0000  -0.0000  -0.0000  -0.0000  -0.0000  -0.0000  -0.0000
    -0.0000  -0.0000  -0.0000  -0.0000  -0.0000  -0.0000  -0.0000  -0.0000
    -0.0000  -0.0000  -0.0000  -0.0000  -0.0000  -0.0000  -0.0000  -0.0000
    -0.0000  -0.0000  -0.0000  -0.0000  -0.0000  -0.0000  -0.0000  -0.0000
    -0.0000  -0.0000  -0.0000  -0.0000  -0.0000  -0.0000  -0.0000  -0.0000
    -0.0000  -0.0000  -0.0000  -0.0000  -0.0000  -0.0000  -0.0000  -0.0000
    -0.0000  -0.0000  -0.0000  -0.0000  -0.0000  -0.0000  -0.0000  -0.0000
    -0.0000  -0.0000  -0.0000  -0.0000  -0.0000  -0.0000  -0.0000  -0.0000
    -0.0000  -0.0000  -0.0000  -0.0000  -0.0000  -0.0000  -0.0000  -0.0000
    -0.0000  -0.0000  -0.0000  -0.0000  -0.0000  -0.0000  -0.0000  -0.0000
    -0.0000  -0.0000  -0.0000  -0.0000  -0.0000  -0.0000  -0.0000  -0.0000
    -0.0000  -0.0000  -0.0000  -0.0000  -0.0000  -0.0000  -0.0000  -0.0000
    -0.0000  -0.0000  -0.0000  -0.0000  -0.0000  -0.0000  -0.0000  -0.0000
    -0.0000  -0.0000  -0.0000  -0.0000  -0.0000  -0.0000  -0.0000  -0.0000
    -0.0000  -0.0000  -0.0000  -0.0000  -0.0000  -0.0000  -0.0000  -0.0000
    -0.0000  -0.0000  -0.0000  -0.0000  -0.0000  -0.0000  -0.0000  -0.0000
    -0.0000  -0.0000  -0.0000  -0.0000  -0.0000  -0.0000  -0.0000  -0.0000
    -0.0000  -0.0000  -0.0000  -0.0000  -0.0000  -0.0000  -0.0000  -0.0000
    -0.0000  -0.0000  -0.0000  -0.0000  -0.0000  -0.0000  -0.0000  -0.0000
    -0.0000  -0.0000  -0.0000  -0.0000  -0.0000  -0.0000  -0.0000  -0.0000
    -0.0000  -0.0000  -0.0000  -0.0000  -0.0000  -0.0000  -0.0000  -0.0000
    -0.0000  -0.0000  -0.0000  -0.0000  -0.0000  -0.0000  -0.0000  -0.0000
    -0.0000  -0.0000  -0.0000  -0.0000  -0.0000  -0.0000  -0.0000  -0.0000
    -0.0000  -0.0000  -0.0000  -0.0000  -0.0000  -0.0000  -0.0000  -0.0000
    -0.0000  -0.0000  -0.0000  -0.0000  -0.0000  -0.0000  -0.0000  -0.0000
    -0.0000  -0.0000  -0.0000  -0.0000  -0.0000  -0.0000  -0.0000  -0.0000
    -0.0000  -0.0000  -0.0000  -0.0000  -0.0000  -0.0000  -0.0000  -0.0000
    -0.0000  -0.0000  -0.0000  -0.0000  -0.0000  -0.0000  -0.0000  -0.0000
    -0.0000  -0.0000  -0.0000  -0.0000  -0.0000  -0.0000  -0.0000  -0.0000
    -0.0000  -0.0000  -0.0000  -0.0000  -0.0000  -0.0000  -0.0000  -0.0000
    -0.0000  -0.0000  -0.0000  -0.0000  -0.0000  -0.0000  -0.0000  -0.0000
    -0.0000  -0.0000  -0.0000  -0.0000  -0.0000  -0.0000  -0.0000  -0.0000
    -0.0000  -0.0000  -0.0000  -0.0000  -0.0000  -0.0000  -0.0000  -0.0000
    -0.0000  -0.0000  -0.0000  -0.0000  -0.0000  -0.0000  -0.0000  -0.0000
    -0.0000  -0.0000  -0.0000  -0.0000  -0.0000  -0.0000  -0.0000  -0.0000
    -0.0000  -0.0000  -0.0000  -0.0000  -0.0000  -0.0000  -0.0000  -0.0000
    -0.0000  -0.0000  -0.0000  -0.0000  -0.0000  -0.0000  -0.0000  -0.0000
    -0.0000  -0.0000  -0.0000  -0.0000  -0.0000  -0.0000  -0.0000  -0.0000
    -0.0000  -0.0000  -0.0000  -0.0000  -0.0000  -0.0000  -0.0000  -0.0000
    -0.0000  -0.0000  -0.0000  -0.0000  -0.0000  -0.0000  -0.0000  -0.0000
    -0.0000  -0.0000  -0.0000  -0.0000  -0.0000  -0.0000  -0.0000  -0.0000
    -0.0000  -0.0000  -0.0000  -0.0000  -0.0000  -0.0000  -0.0000  -0.0000
    -0.0000  -0.0000  -0.0000  -0.0000  -0.0000  -0.0000  -0.0000  -0.0000
    -0.0000  -0.0000  -0.0000  -0.0000  -0.0000  -0.0000  -0.0000  -0.0000
    -0.0000  -0.0000  -0.0000  -0.0000  -0.0000  -0.0000  -0.0000  -0.0000
    -0.0000  -0.0000  -0.0000  -0.0000  -0.0000  -0.0000  -0.0000  -0.0000
    -0.0000  -0.0000  -0.0000  -0.0000  -0.0000  -0.0000  -0.0000  -0.0000
    -0.0000  -0.0000  -0.0000  -0.0000  -0.0000  -0.0000  -0.0000  -0.0000
    -0.0000  -0.0000  -0.0000  -0.0000  -0.0000  -0.0000  -0.0000  -0.0000
    -0.0000  -0.0000  -0.0000  -0.0000  -0.0000  -0.0000  -0.0000  -0.0000
    -0.0000  -0.0000  -0.0000  -0.0000  -0.0000  -0.0000  -0.0000  -0.0000
    -0.0000  -0.0000  -0.0000  -0.0000  -0.0000  -0.0000  -0.0000  -0.0000
    -0.0000  -0.0000  -0.0000  -0.0000  -0.0000  -0.0000  -0.0000  -0.0000
    -0.0000  -0.0000  -0.0000  -0.0000  -0.0000  -0.0000  -0.0000  -0.0000
    -0.0000  -0.0000  -0.0000  -0.0000  -0.0000  -0.0000  -0.0000  -0.0000
    -0.0000  -0.0000  -0.0000  -0.0000  -0.0000  -0.0000  -0.0000  -0.0000
    -0.0000  -0.0000  -0.0000  -0.0000  -0.0000  -0.0000  -0.0000  -0.0000
    -0.0000  -0.0000  -0.0000  -0.0000  -0.0000  -0.0000  -0.0000  -0.0000
    -0.0000  -0.0000  -0.0000  -0.0000  -0.0000  -0.0000  -0.0000  -0.0000
    -0.0000  -0.0000  -0.0000  -0.0000  -0.0000  -0.0000  -0.0000  -0.0000
    -0.0000  -0.0000  -0.0000  -0.0000  -0.0000  -0.0000  -0.0000  -0.0000
    -0.0000  -0.0000  -0.0000  -0.0000  -0.0000  -0.0000  -0.0000  -0.0000
    -0.0000  -0.0000  -0.0000  -0.0000  -0.0000  -0.0000  -0.0000  -0.0000
    -0.0000  -0.0000  -0.0000  -0.0000  -0.0000  -0.0000  -0.0000  -0.0000
    -0.0000  -0.0000  -0.0000  -0.0000  -0.0000  -0.0000  -0.0000  -0.0000
    -0.0000  -0.0000  -0.0000  -0.0000  -0.0000  -0.0000  -0.0000  -0.0000
    -0.0000  -0.0000  -0.0000  -0.0000  -0.0000  -0.0000  -0.0000  -0.0000
    -0.0000  -0.0000  -0.0000  -0.0000  -0.0000  -0.0000  -0.0000  -0.0000
    -0.0000  -0.0000  -0.0000  -0.0000  -0.0000  -0.0000  -0.0000  -0.0000
    -0.0000  -0.0000  -0.0000  -0.0000  -0.0000  -0.0000  -0.0000  -0.0000
    -0.0000  -0.0000  -0.0000  -0.0000  -0.0000  -0.0000  -0.0000  -0.0000
    -0.0000  -0.0000  -0.0000  -0.0000  -0.0000  -0.0000  -0.0000  -0.0000
    -0.0000  -0.0000  -0.0000  -0.0000  -0.0000  -0.0000  -0.0000  -0.0000
    -0.0000  -0.0000  -0.0000  -0.0000  -0.0000  -0.0000  -0.0000  -0.0000
    -0.0000  -0.0000  -0.0000  -0.0000  -0.0000  -0.0000  -0.0000  -0.0000
    -0.0000  -0.0000  -0.0000  -0.0000  -0.0000  -0.0000  -0.0000  -0.0000
    -0.0000  -0.0000  -0.0000  -0.0000  -0.0000  -0.0000  -0.0000  -0.0000
    -0.0000  -0.0000  -0.0000  -0.0000  -0.0000  -0.0000  -0.0000  -0.0000
    -0.0000  -0.0000  -0.0000  -0.0000  -0.0000  -0.0000  -0.0000  -0.0000
    -0.0000  -0.0000  -0.0000  -0.0000  -0.0000  -0.0000  -0.0000  -0.0000
    -0.0000  -0.0000  -0.0000  -0.0000  -0.0000  -0.0000  -0.0000  -0.0000
    -0.0000  -0.0000  -0.0000  -0.0000  -0.0000  -0.0000  -0.0000  -0.0000
    -0.0000  -0.0000  -0.0000  -0.0000  -0.0000  -0.0000  -0.0000  -0.0000
    -0.0000  -0.0000  -0.0000  -0.0000  -0.0000  -0.0000  -0.0000  -0.0000
    -0.0000  -0.0000  -0.0000  -0.0000  -0.0000  -0.0000  -0.0000  -0.0000
    -0.0000  -0.0000  -0.0000  -0.0000  -0.0000  -0.0000  -0.0000  -0.0000
    -0.0000  -0.0000  -0.0000  -0.0000  -0.0000  -0.0000  -0.0000  -0.0000
    -0.0000  -0.0000  -0.0000  -0.0000  -0.0000  -0.0000  -0.0000  -0.0000
    -0.0000  -0.0000  -0.0000  -0.0000  -0.0000  -0.0000  -0.0000  -0.0000
    -0.0000  -0.0000  -0.0000  -0.0000  -0.0000  -0.0000  -0.0000  -0.0000
    -0.0000  -0.0000  -0.0000  -0.0000  -0.0000  -0.0000  -0.0000  -0.0000
    -0.0000  -0.0000  -0.0000  -0.0000  -0.0000  -0.0000  -0.0000  -0.0000
    -0.0000  -0.0000  -0.0000  -0.0000  -0.0000  -0.0000  -0.0000  -0.0000
    -0.0000  -0.0000  -0.0000  -0.0000  -0.0000  -0.0000  -0.0000  -0.0000
    -0.0000  -0.0000  -0.0000  -0.0000  -0.0000  -0.0000  -0.0000  -0.0000
    -0.0000  -0.0000  -0.0000  -0.0000  -0.0000  -0.0000  -0.0000  -0.0000
    -0.0000  -0.0000  -0.0000  -0.0000  -0.0000  -0.0000  -0.0000  -0.0000
    -0.0000  -0.0000  -0.0000  -0.0000  -0.0000  -0.0000  -0.0000  -0.0000
    -0.0000  -0.0000  -0.0000  -0.0000  -0.0000  -0.0000  -0.0000  -0.0000
    -0.0000  -0.0000  -0.0000  -0.0000  -0.0000  -0.0000  -0.0000  -0.0000
    -0.0000  -0.0000  -0.0000  -0.0000  -0.0000  -0.0000  -0.0000  -0.0000
    -0.0000  -0.0000  -0.0000  -0.0000  -0.0000  -0.0000  -0.0000  -0.0000
    -0.0000  -0.0000  -0.0000  -0.0000  -0.0000  -0.0000  -0.0000  -0.0000
    -0.0000  -0.0000  -0.0000  -0.0000  -0.0000  -0.0000  -0.0000  -0.0000
    -0.0000  -0.0000  -0.0000  -0.0000  -0.0000  -0.0000  -0.0000  -0.0000
    -0.0000  -0.0000  -0.0000  -0.0000  -0.0000  -0.0000  -0.0000  -0.0000
    -0.0000  -0.0000  -0.0000  -0.0000  -0.0000  -0.0000  -0.0000  -0.0000
    -0.0000  -0.0000  -0.0000  -0.0000  -0.0000  -0.0000  -0.0000  -0.0000
    -0.0000  -0.0000  -0.0000  -0.0000  -0.0000  -0.0000  -0.0000  -0.0000
    -0.0000  -0.0000  -0.0000  -0.0000  -0.0000  -0.0000  -0.0000  -0.0000
    -0.0000  -0.0000  -0.0000  -0.0000  -0.0000  -0.0000  -0.0000  -0.0000
    -0.0000  -0.0000  -0.0000  -0.0000  -0.0000  -0.0000  -0.0000  -0.0000
    -0.0000  -0.0000  -0.0000  -0.0000  -0.0000  -0.0000  -0.0000  -0.0000
    -0.0000  -0.0000  -0.0000  -0.0000  -0.0000  -0.0000  -0.0000  -0.0000
    -0.0000  -0.0000  -0.0000  -0.0000  -0.0000  -0.0000  -0.0000  -0.0000
    -0.0000  -0.0000  -0.0000  -0.0000  -0.0000  -0.0000  -0.0000  -0.0000
    -0.0000  -0.0000  -0.0000  -0.0000  -0.0000  -0.0000  -0.0000  -0.0000
    -0.0000  -0.0000  -0.0000  -0.0000  -0.0000  -0.0000  -0.0000  -0.0000
    -0.0000  -0.0000  -0.0000  -0.0000  -0.0000  -0.0000  -0.0000  -0.0000
    -0.0000  -0.0000  -0.0000  -0.0000  -0.0000  -0.0000  -0.0000  -0.0000
    -0.0000  -0.0000  -0.0000  -0.0000  -0.0000  -0.0000  -0.0000  -0.0000
    -0.0000  -0.0000  -0.0000  -0.0000  -0.0000  -0.0000  -0.0000  -0.0000
    -0.0000  -0.0000  -0.0000  -0.0000  -0.0000  -0.0000  -0.0000  -0.0000
    -0.0000  -0.0000  -0.0000  -0.0000  -0.0000  -0.0000  -0.0000  -0.0000
    -0.0000  -0.0000  -0.0000  -0.0000  -0.0000  -0.0000  -0.0000  -0.0000
    -0.0000  -0.0000  -0.0000  -0.0000  -0.0000  -0.0000  -0.0000  -0.0000
    -0.0000  -0.0000  -0.0000  -0.0000  -0.0000  -0.0000  -0.0000  -0.0000
    -0.0000  -0.0000  -0.0000  -0.0000  -0.0000  -0.0000  -0.0000  -0.0000
    -0.0000  -0.0000  -0.0000  -0.0000  -0.0000  -0.0000  -0.0000  -0.0000
    -0.0000  -0.0000  -0.0000  -0.0000  -0.0000  -0.0000  -0.0000  -0.0000
    -0.0000  -0.0000  -0.0000  -0.0000  -0.0000  -0.0000  -0.0000  -0.0000
    -0.0000  -0.0000  -0.0000  -0.0000  -0.0000  -0.0000  -0.0000  -0.0000
    -0.0000  -0.0000  -0.0000  -0.0000  -0.0000  -0.0000  -0.0000  -0.0000
    -0.0000  -0.0000  -0.0000  -0.0000  -0.0000  -0.0000  -0.0000  -0.0000
    -0.0000  -0.0000  -0.0000  -0.0000  -0.0000  -0.0000  -0.0000  -0.0000
    -0.0000  -0.0000  -0.0000  -0.0000  -0.0000  -0.0000  -0.0000  -0.0000
    -0.0000  -0.0000  -0.0000  -0.0000  -0.0000  -0.0000  -0.0000  -0.0000
    -0.0000  -0.0000  -0.0000  -0.0000  -0.0000  -0.0000  -0.0000  -0.0000
    -0.0000  -0.0000  -0.0000  -0.0000  -0.0000  -0.0000  -0.0000  -0.0000
    -0.0000  -0.0000  -0.0000  -0.0000  -0.0000  -0.0000  -0.0000  -0.0000
    -0.0000  -0.0000  -0.0000  -0.0000  -0.0000  -0.0000  -0.0000  -0.0000
    -0.0000  -0.0000  -0.0000  -0.0000  -0.0000  -0.0000  -0.0000  -0.0000
    -0.0000  -0.0000  -0.0000  -0.0000  -0.0000  -0.0000  -0.0000  -0.0000
    -0.0000  -0.0000  -0.0000  -0.0000  -0.0000  -0.0000  -0.0000  -0.0000
    -0.0000  -0.0000  -0.0000  -0.0000  -0.0000  -0.0000  -0.0000  -0.0000
    -0.0000  -0.0000  -0.0000  -0.0000  -0.0000  -0.0000  -0.0000  -0.0000
    -0.0000  -0.0000  -0.0000  -0.0000  -0.0000  -0.0000  -0.0000  -0.0000
    -0.0000  -0.0000  -0.0000  -0.0000  -0.0000  -0.0000  -0.0000  -0.0000
    -0.0000  -0.0000  -0.0000  -0.0000  -0.0000  -0.0000  -0.0000  -0.0000
    -0.0000  -0.0000  -0.0000  -0.0000  -0.0000  -0.0000  -0.0000  -0.0000
    -0.0000  -0.0000  -0.0000  -0.0000  -0.0000  -0.0000  -0.0000  -0.0000
    -0.0000  -0.0000  -0.0000  -0.0000  -0.0000  -0.0000  -0.0000  -0.0000
    -0.0000  -0.0000  -0.0000  -0.0000  -0.0000  -0.0000  -0.0000  -0.0000
    -0.0000  -0.0000  -0.0000  -0.0000  -0.0000  -0.0000  -0.0000  -0.0000
    -0.0000  -0.0000  -0.0000  -0.0000  -0.0000  -0.0000  -0.0000  -0.0000
    -0.0000  -0.0000  -0.0000  -0.0000  -0.0000  -0.0000  -0.0000  -0.0000
    -0.0000  -0.0000  -0.0000  -0.0000  -0.0000  -0.0000  -0.0000  -0.0000
    -0.0000  -0.0000  -0.0000  -0.0000  -0.0000  -0.0000  -0.0000  -0.0000
    -0.0000  -0.0000  -0.0000  -0.0000  -0.0000  -0.0000  -0.0000  -0.0000
    -0.0000  -0.0000  -0.0000  -0.0000  -0.0000  -0.0000  -0.0000  -0.0000
    -0.0000  -0.0000  -0.0000  -0.0000  -0.0000  -0.0000  -0.0000  -0.0000
    -0.0000  -0.0000  -0.0000  -0.0000  -0.0000  -0.0000  -0.0000  -0.0000
    -0.0000  -0.0000  -0.0000  -0.0000  -0.0000  -0.0000  -0.0000  -0.0000
    -0.0000  -0.0000  -0.0000  -0.0000  -0.0000  -0.0000  -0.0000  -0.0000
    -0.0000  -0.0000  -0.0000  -0.0000  -0.0000  -0.0000  -0.0000  -0.0000
    -0.0000  -0.0000  -0.0000  -0.0000  -0.0000  -0.0000  -0.0000  -0.0000
    -0.0000  -0.0000  -0.0000  -0.0000  -0.0000  -0.0000  -0.0000  -0.0000
    -0.0000  -0.0000  -0.0000  -0.0000  -0.0000  -0.0000  -0.0000  -0.0000
    -0.0000  -0.0000  -0.0000  -0.0000  -0.0000  -0.0000  -0.0000  -0.0000
    -0.0000  -0.0000  -0.0000  -0.0000  -0.0000  -0.0000  -0.0000  -0.0000
    -0.0000  -0.0000  -0.0000  -0.0000  -0.0000  -0.0000  -0.0000  -0.0000
    -0.0000  -0.0000  -0.0000  -0.0000  -0.0000  -0.0000  -0.0000  -0.0000
    -0.0000  -0.0000  -0.0000  -0.0000  -0.0000  -0.0000  -0.0000  -0.0000
    -0.0000  -0.0000  -0.0000  -0.0000  -0.0000  -0.0000  -0.0000  -0.0000
    -0.0000  -0.0000  -0.0000  -0.0000  -0.0000  -0.0000  -0.0000  -0.0000
    -0.0000  -0.0000  -0.0000  -0.0000  -0.0000  -0.0000  -0.0000  -0.0000
    -0.0000  -0.0000  -0.0000  -0.0000  -0.0000  -0.0000  -0.0000  -0.0000
    -0.0000  -0.0000  -0.0000  -0.0000  -0.0000  -0.0000  -0.0000  -0.0000
    -0.0000  -0.0000  -0.0000  -0.0000  -0.0000  -0.0000  -0.0000  -0.0000
    -0.0000  -0.0000  -0.0000  -0.0000  -0.0000  -0.0000  -0.0000  -0.0000
    -0.0000  -0.0000  -0.0000  -0.0000  -0.0000  -0.0000  -0.0000  -0.0000
    -0.0000  -0.0000  -0.0000  -0.0000  -0.0000  -0.0000  -0.0000  -0.0000
    -0.0000  -0.0000  -0.0000  -0.0000  -0.0000  -0.0000  -0.0000  -0.0000

     the Fermi energy is    -2.6877 ev
     (compare with:    -2.6877 eV, computed in scf)

     Writing all to output data dir ./out/aiida.save/
 
     init_run     :     32.12s CPU     20.51s WALL (       1 calls)
     electrons    :   6396.55s CPU   3296.25s WALL (       1 calls)

     Called by init_run:
     wfcinit      :     19.05s CPU     10.16s WALL (       1 calls)
     wfcinit:atom :      0.26s CPU      0.18s WALL (       2 calls)
     wfcinit:wfcr :    109.38s CPU     56.93s WALL (       2 calls)
     potinit      :      3.83s CPU      3.50s WALL (       1 calls)
     hinit0       :      3.59s CPU      2.42s WALL (       1 calls)

     Called by electrons:
     c_bands      :   6396.51s CPU   3296.20s WALL (       1 calls)
     v_of_rho     :      0.85s CPU      0.47s WALL (       1 calls)
     v_h          :      0.06s CPU      0.03s WALL (       1 calls)
     v_xc         :      0.79s CPU      0.44s WALL (       1 calls)
     newd         :      2.73s CPU      1.71s WALL (       1 calls)
     PAW_pot      :      2.45s CPU      2.15s WALL (       1 calls)

     Called by c_bands:
     init_us_2    :      0.36s CPU      0.23s WALL (       4 calls)
     init_us_2:cp :      0.36s CPU      0.23s WALL (       4 calls)
     regterg      :   6284.37s CPU   3237.25s WALL (      10 calls)

     Called by sum_band:

     Called by *egterg:
     rdiaghg      :    580.84s CPU    311.64s WALL (     164 calls)
     regterg:over :    836.11s CPU    424.24s WALL (     162 calls)
     regterg:upda :    532.26s CPU    268.77s WALL (     162 calls)
     regterg:last :   1468.11s CPU    738.74s WALL (      64 calls)
     rdiaghg:chol :     46.42s CPU     25.19s WALL (     164 calls)
     rdiaghg:inve :     29.94s CPU     24.70s WALL (     164 calls)
     rdiaghg:para :    126.88s CPU     65.88s WALL (     328 calls)
     h_psi        :   2571.12s CPU   1340.18s WALL (     174 calls)
     s_psi        :    313.61s CPU    159.90s WALL (     176 calls)
     g_psi        :      4.51s CPU      2.35s WALL (     162 calls)

     Called by h_psi:
     h_psi:calbec :    343.65s CPU    182.41s WALL (     174 calls)
     vloc_psi     :   1425.42s CPU    749.56s WALL (     174 calls)
     add_vuspsi   :    306.90s CPU    157.96s WALL (     174 calls)
     vhpsi        :    487.47s CPU    246.42s WALL (     174 calls)

     General routines
     calbec       :    421.28s CPU    223.45s WALL (     350 calls)
     fft          :      0.89s CPU      0.49s WALL (      18 calls)
     ffts         :      0.05s CPU      0.03s WALL (       2 calls)
     fftw         :   1109.06s CPU    612.54s WALL (  205038 calls)
     interpolate  :      0.17s CPU      0.09s WALL (       2 calls)
     davcio       :      0.15s CPU      0.38s WALL (       8 calls)
 
     Parallel routines

     Hubbard U routines
     vhpsi        :    487.47s CPU    246.42s WALL (     174 calls)

     PAW routines
     PAW_pot      :      2.45s CPU      2.15s WALL (       1 calls)
 
     PWSCF        :      1h47m CPU  56m 4.42s WALL

 
   This run was terminated on:   8: 9:17  18Dec2024            

=------------------------------------------------------------------------------=
   JOB DONE.
=------------------------------------------------------------------------------=
