
     Program PWSCF v.7.0 starts on 18Dec2024 at 10:32:41 

     This program is part of the open-source Quantum ESPRESSO suite
     for quantum simulation of materials; please cite
         "P. Giannozzi et al., J. Phys.:Condens. Matter 21 395502 (2009);
         "P. Giannozzi et al., J. Phys.:Condens. Matter 29 465901 (2017);
         "P. Giannozzi et al., J. Chem. Phys. 152 154105 (2020);
          URL http://www.quantum-espresso.org", 
     in publications or presentations arising from this work. More details at
     http://www.quantum-espresso.org/quote

     Parallel version (MPI & OpenMP), running on     288 processor cores
     Number of MPI processes:               288
     Threads/MPI process:                     1

     MPI processes distributed on     8 nodes
     R & G space division:  proc/nbgrp/npool/nimage =     288
     59274 MiB available memory on the printing compute node when the environment starts
 
     Reading input from pwscf.in

     Current dimensions of program PWSCF are:
     Max number of different atomic species (ntypx) = 10
     Max number of k-points (npk) =  40000
     Max angular momentum in pseudopotentials (lmaxx) =  4
     file O.pbe-n-kjpaw_psl.0.1.UPF: wavefunction(s)  2P renormalized
     file Ce.paw.z_12.atompaw.wentzcovitch.v1.2.upf: wavefunction(s)  6S 0P 5D 0D 4F 0F renormalized
     file C.pbe-n-kjpaw_psl.1.0.0.UPF: wavefunction(s)  2S 2P renormalized
     file Fe.pbe-spn-kjpaw_psl.0.2.1.UPF: wavefunction(s)  3D renormalized

     gamma-point specific algorithms are used

     Subspace diagonalization in iterative solution of the eigenvalue problem:
     one sub-group per band group will be used
     scalapack distributed-memory algorithm (size of sub-group: 16* 16 procs)


     Program PWSCF v.7.0 starts on 18Dec2024 at 15:33:15 

     This program is part of the open-source Quantum ESPRESSO suite
     for quantum simulation of materials; please cite
         "P. Giannozzi et al., J. Phys.:Condens. Matter 21 395502 (2009);
         "P. Giannozzi et al., J. Phys.:Condens. Matter 29 465901 (2017);
         "P. Giannozzi et al., J. Chem. Phys. 152 154105 (2020);
          URL http://www.quantum-espresso.org", 
     in publications or presentations arising from this work. More details at
     http://www.quantum-espresso.org/quote

     Parallel version (MPI & OpenMP), running on     288 processor cores
     Number of MPI processes:               288
     Threads/MPI process:                     1

     MPI processes distributed on     8 nodes
     R & G space division:  proc/nbgrp/npool/nimage =     288
     59524 MiB available memory on the printing compute node when the environment starts
 
     Reading input from pwscf.in

     Current dimensions of program PWSCF are:
     Max number of different atomic species (ntypx) = 10
     Max number of k-points (npk) =  40000
     Max angular momentum in pseudopotentials (lmaxx) =  4
     file O.pbe-n-kjpaw_psl.0.1.UPF: wavefunction(s)  2P renormalized
     file Ce.paw.z_12.atompaw.wentzcovitch.v1.2.upf: wavefunction(s)  6S 0P 5D 0D 4F 0F renormalized
     file C.pbe-n-kjpaw_psl.1.0.0.UPF: wavefunction(s)  2S 2P renormalized
     file Fe.pbe-spn-kjpaw_psl.0.2.1.UPF: wavefunction(s)  3D renormalized

     gamma-point specific algorithms are used

     Subspace diagonalization in iterative solution of the eigenvalue problem:
     one sub-group per band group will be used
     scalapack distributed-memory algorithm (size of sub-group: 16* 16 procs)

 
     Parallelization info
     --------------------
     sticks:   dense  smooth     PW     G-vecs:    dense   smooth      PW
     Min         146      72     17                31642    11168    1386
     Max         148      74     20                31688    11218    1412
     Sum       42361   21205   5305              9119279  3224425  403087
 
     Using Pencil Decomposition
 


     bravais-lattice index     =            0
     lattice parameter (alat)  =      43.8349  a.u.
     unit-cell volume          =   94338.8593 (a.u.)^3
     number of atoms/cell      =          245
     number of atomic types    =            6
     number of electrons       =      1854.00
     number of Kohn-Sham states=         2500
     kinetic-energy cutoff     =      40.0000  Ry
     charge density cutoff     =     320.0000  Ry
     scf convergence threshold =      4.2E-06
     mixing beta               =       0.1000
     number of iterations used =            8  plain     mixing
     Exchange-correlation= SLA  PW   PBX  PBC
                           (   1   4   3   4   0   0   0)

     celldm(1)=  43.834893  celldm(2)=   0.000000  celldm(3)=   0.000000
     celldm(4)=   0.000000  celldm(5)=   0.000000  celldm(6)=   0.000000

     crystal axes: (cart. coord. in units of alat)
               a(1) = (   1.000000   0.000000   0.000000 )  
               a(2) = (  -0.500000   0.866025   0.000000 )  
               a(3) = (   0.000000   0.000000   1.293303 )  

     reciprocal axes: (cart. coord. in units 2 pi/alat)
               b(1) = (  1.000000  0.577350  0.000000 )  
               b(2) = (  0.000000  1.154701  0.000000 )  
               b(3) = (  0.000000  0.000000  0.773214 )  


     PseudoPot. # 1 for O  read from file:
     ./pseudo/O.pbe-n-kjpaw_psl.0.1.UPF
     MD5 check sum: 0234752ac141de4415c5fc33072bef88
     Pseudo is Projector augmented-wave + core cor, Zval =  6.0
     Generated using "atomic" code by A. Dal Corso  v.5.0.99 svn rev. 10869
     Shape of augmentation charge: BESSEL
     Using radial grid of 1095 points,  4 beta functions with: 
                l(1) =   0
                l(2) =   0
                l(3) =   1
                l(4) =   1
     Q(r) pseudized with 0 coefficients 


     PseudoPot. # 2 for Ce read from file:
     ./pseudo/Ce.paw.z_12.atompaw.wentzcovitch.v1.2.upf
     MD5 check sum: 2241420ff980c77e0c917a2dc8a7e08e
     Pseudo is Projector augmented-wave + core cor, Zval = 12.0
     Generated using ATOMPAW code
     Shape of augmentation charge: BESSEL
     Using radial grid of 1102 points,  8 beta functions with: 
                l(1) =   0
                l(2) =   0
                l(3) =   1
                l(4) =   1
                l(5) =   2
                l(6) =   2
                l(7) =   3
                l(8) =   3
     Q(r) pseudized with 0 coefficients 


     PseudoPot. # 3 for H  read from file:
     ./pseudo/H.pbe-rrkjus_psl.1.0.0.UPF
     MD5 check sum: f52b6d4d1c606e5624b1dc7b2218f220
     Pseudo is Ultrasoft, Zval =  1.0
     Generated using "atomic" code by A. Dal Corso  v.5.1
     Using radial grid of  929 points,  2 beta functions with: 
                l(1) =   0
                l(2) =   0
     Q(r) pseudized with 0 coefficients 


     PseudoPot. # 4 for N  read from file:
     ./pseudo/N.pbe-n-radius_5.UPF
     MD5 check sum: 16739722b17309cd8fe442a2ace49922
     Pseudo is Ultrasoft + core correction, Zval =  5.0
     Generated using "atomic" code by A. Dal Corso  v.5.1
     Using radial grid of 1085 points,  4 beta functions with: 
                l(1) =   0
                l(2) =   0
                l(3) =   1
                l(4) =   1
     Q(r) pseudized with 0 coefficients 


     PseudoPot. # 5 for C  read from file:
     ./pseudo/C.pbe-n-kjpaw_psl.1.0.0.UPF
     MD5 check sum: 5d2aebdfa2cae82b50a7e79e9516da0f
     Pseudo is Projector augmented-wave + core cor, Zval =  4.0
     Generated using "atomic" code by A. Dal Corso  v.5.1
     Shape of augmentation charge: PSQ
     Using radial grid of 1073 points,  4 beta functions with: 
                l(1) =   0
                l(2) =   0
                l(3) =   1
                l(4) =   1
     Q(r) pseudized with 0 coefficients 


     PseudoPot. # 6 for Fe read from file:
     ./pseudo/Fe.pbe-spn-kjpaw_psl.0.2.1.UPF
     MD5 check sum: e86618425769142926afa95317d90200
     Pseudo is Projector augmented-wave + core cor, Zval = 16.0
     Generated using "atomic" code by A. Dal Corso  v.5.0.99 svn rev. 10869
     Shape of augmentation charge: PSQ
     Using radial grid of 1191 points,  6 beta functions with: 
                l(1) =   0
                l(2) =   0
                l(3) =   1
                l(4) =   1
                l(5) =   2
                l(6) =   2
     Q(r) pseudized with 0 coefficients 


     atomic species   valence    mass     pseudopotential
        O              6.00    15.99940     O ( 1.00)
        Ce            12.00   140.11600     Ce( 1.00)
        H              1.00     1.00794     H ( 1.00)
        N              5.00    14.00670     N ( 1.00)
        C              4.00    12.01070     C ( 1.00)
        Fe            16.00    55.84500     Fe( 1.00)

     Starting magnetic structure 
     atomic species   magnetization
        O            0.100
        Ce           0.417
        H            0.000
        N            0.000
        C            0.000
        Fe           0.417


     Simplified LDA+U calculation (l_max = 3) with parameters (eV):
     atomic species    L          U    alpha       J0     beta
        Ce             3     5.0000   0.0000   0.0000   0.0000
        Fe             2     6.0000   0.0000   0.0000   0.0000



     No symmetry found



   Cartesian axes

     site n.     atom                  positions (alat units)
         1           O   tau(   1) = (   0.0833330   0.2405628   0.2721652  )
         2           O   tau(   2) = (   0.0833331   0.8179129   0.2721652  )
         3           O   tau(   3) = (   0.0833335   0.5292376   0.2721652  )
         4           O   tau(   4) = (   0.1666664   0.6735755   0.2721652  )
         5           O   tau(   5) = (   0.1666665   0.0962249   0.2721652  )
         6           O   tau(   6) = (   0.1666667   0.3849002   0.2721652  )
         7           O   tau(   7) = (   0.2499996   0.8179129   0.2721652  )
         8           O   tau(   8) = (   0.2500000   0.5292376   0.2721652  )
         9           O   tau(   9) = (   0.2500000   0.2405628   0.2721652  )
        10           O   tau(  10) = (   0.3333329   0.6735755   0.2721652  )
        11           O   tau(  11) = (   0.3333332   0.3849002   0.2721652  )
        12           O   tau(  12) = (   0.3333335   0.0962249   0.2721652  )
        13           O   tau(  13) = (   0.4166664   0.5292376   0.2721652  )
        14           O   tau(  14) = (   0.4166665   0.2405628   0.2721652  )
        15           O   tau(  15) = (   0.4166666   0.8179129   0.2721652  )
        16           O   tau(  16) = (  -0.0000000   0.0962249   0.2721652  )
        17           O   tau(  17) = (  -0.0000001   0.6735755   0.2721652  )
        18           O   tau(  18) = (  -0.0000003   0.3849002   0.2721652  )
        19           O   tau(  19) = (  -0.0833334   0.8179129   0.2721652  )
        20           O   tau(  20) = (  -0.0833335   0.2405628   0.2721652  )
        21           O   tau(  21) = (  -0.0833336   0.5292376   0.2721652  )
        22           O   tau(  22) = (  -0.1666668   0.3849002   0.2721652  )
        23           O   tau(  23) = (  -0.1666671   0.6735755   0.2721652  )
        24           O   tau(  24) = (  -0.2500001   0.5292376   0.2721652  )
        25           O   tau(  25) = (  -0.2500004   0.8179129   0.2721652  )
        26           O   tau(  26) = (  -0.3333336   0.6735755   0.2721652  )
        27           O   tau(  27) = (  -0.4166669   0.8179129   0.2721652  )
        28           O   tau(  28) = (   0.4999997   0.3849002   0.2721652  )
        29           O   tau(  29) = (   0.4999999   0.6735755   0.2721652  )
        30           O   tau(  30) = (   0.5000000   0.0962249   0.2721652  )
        31           O   tau(  31) = (   0.5833329   0.2405628   0.2721652  )
        32           O   tau(  32) = (   0.5833335   0.5292376   0.2721652  )
        33           O   tau(  33) = (   0.6666665   0.0962249   0.2721652  )
        34           O   tau(  34) = (   0.6666667   0.3849002   0.2721652  )
        35           O   tau(  35) = (   0.7500000   0.2405628   0.2721652  )
        36           O   tau(  36) = (   0.8333335   0.0962249   0.2721652  )
        37           Ce  tau(  37) = (   0.0000000   0.0000000   0.3061864  )
        38           Ce  tau(  38) = (   0.0000002   0.5773501   0.3061864  )
        39           Ce  tau(  39) = (   0.0833332   0.7216879   0.3061864  )
        40           Ce  tau(  40) = (   0.0833332   0.1443374   0.3061864  )
        41           Ce  tau(  41) = (   0.0833334   0.4330127   0.3061864  )
        42           Ce  tau(  42) = (   0.1666665   0.0000000   0.3061864  )
        43           Ce  tau(  43) = (   0.1666667   0.5773501   0.3061864  )
        44           Ce  tau(  44) = (   0.1666667   0.2886753   0.3061864  )
        45           Ce  tau(  45) = (   0.2499997   0.7216879   0.3061864  )
        46           Ce  tau(  46) = (   0.2499999   0.4330127   0.3061864  )
        47           Ce  tau(  47) = (   0.2500002   0.1443374   0.3061864  )
        48           Ce  tau(  48) = (   0.3333332   0.5773501   0.3061864  )
        49           Ce  tau(  49) = (   0.3333332   0.2886753   0.3061864  )
        50           Ce  tau(  50) = (   0.3333335   0.0000000   0.3061864  )
        51           Ce  tau(  51) = (   0.4166665   0.4330127   0.3061864  )
        52           Ce  tau(  52) = (   0.4166667   0.7216879   0.3061864  )
        53           Ce  tau(  53) = (   0.4166667   0.1443374   0.3061864  )
        54           Ce  tau(  54) = (  -0.0000003   0.2886753   0.3061864  )
        55           Ce  tau(  55) = (  -0.0833333   0.1443374   0.3061864  )
        56           Ce  tau(  56) = (  -0.0833333   0.7216879   0.3061864  )
        57           Ce  tau(  57) = (  -0.0833336   0.4330127   0.3061864  )
        58           Ce  tau(  58) = (  -0.1666668   0.2886753   0.3061864  )
        59           Ce  tau(  59) = (  -0.1666668   0.5773501   0.3061864  )
        60           Ce  tau(  60) = (  -0.2500001   0.4330127   0.3061864  )
        61           Ce  tau(  61) = (  -0.2500003   0.7216879   0.3061864  )
        62           Ce  tau(  62) = (  -0.3333333   0.5773501   0.3061864  )
        63           Ce  tau(  63) = (   0.4999997   0.2886753   0.3061864  )
        64           Ce  tau(  64) = (   0.5000000   0.0000000   0.3061864  )
        65           Ce  tau(  65) = (   0.5000002   0.5773501   0.3061864  )
        66           Ce  tau(  66) = (   0.5833332   0.7216879   0.3061864  )
        67           Ce  tau(  67) = (   0.5833332   0.1443374   0.3061864  )
        68           Ce  tau(  68) = (   0.5833334   0.4330127   0.3061864  )
        69           Ce  tau(  69) = (   0.6666665   0.0000000   0.3061864  )
        70           Ce  tau(  70) = (   0.6666667   0.2886753   0.3061864  )
        71           Ce  tau(  71) = (   0.7500002   0.1443374   0.3061864  )
        72           Ce  tau(  72) = (   0.8333335   0.0000000   0.3061864  )
        73           O   tau(  73) = (   0.0000002   0.4811252   0.3402076  )
        74           O   tau(  74) = (   0.0833332   0.0481125   0.3402076  )
        75           O   tau(  75) = (   0.0833334   0.6254625   0.3402076  )
        76           O   tau(  76) = (   0.0833334   0.3367877   0.3402076  )
        77           O   tau(  77) = (   0.1666664   0.7698004   0.3402076  )
        78           O   tau(  78) = (   0.1666667   0.4811252   0.3402076  )
        79           O   tau(  79) = (   0.1666670   0.1924499   0.3402076  )
        80           O   tau(  80) = (   0.2499999   0.6254625   0.3402076  )
        81           O   tau(  81) = (   0.2500000   0.3367877   0.3402076  )
        82           O   tau(  82) = (   0.2500002   0.0481125   0.3402076  )
        83           O   tau(  83) = (   0.3333332   0.4811252   0.3402076  )
        84           O   tau(  84) = (   0.3333334   0.7698004   0.3402076  )
        85           O   tau(  85) = (   0.3333335   0.1924499   0.3402076  )
        86           O   tau(  86) = (   0.4166664   0.3367877   0.3402076  )
        87           O   tau(  87) = (   0.4166668   0.0481125   0.3402076  )
        88           O   tau(  88) = (   0.4166670   0.6254625   0.3402076  )
        89           O   tau(  89) = (  -0.0000000   0.1924499   0.3402076  )
        90           O   tau(  90) = (  -0.0000001   0.7698004   0.3402076  )
        91           O   tau(  91) = (  -0.0833331   0.6254625   0.3402076  )
        92           O   tau(  92) = (  -0.0833336   0.3367877   0.3402076  )
        93           O   tau(  93) = (  -0.1666666   0.7698004   0.3402076  )
        94           O   tau(  94) = (  -0.1666668   0.4811252   0.3402076  )
        95           O   tau(  95) = (  -0.2500001   0.6254625   0.3402076  )
        96           O   tau(  96) = (  -0.3333336   0.7698004   0.3402076  )
        97           O   tau(  97) = (   0.4999999   0.7698004   0.3402076  )
        98           O   tau(  98) = (   0.5000000   0.1924499   0.3402076  )
        99           O   tau(  99) = (   0.5000002   0.4811252   0.3402076  )
       100           O   tau( 100) = (   0.5833332   0.0481125   0.3402076  )
       101           O   tau( 101) = (   0.5833335   0.6254625   0.3402076  )
       102           O   tau( 102) = (   0.5833335   0.3367877   0.3402076  )
       103           O   tau( 103) = (   0.6666667   0.4811252   0.3402076  )
       104           O   tau( 104) = (   0.6666670   0.1924499   0.3402076  )
       105           O   tau( 105) = (   0.7500000   0.3367877   0.3402076  )
       106           O   tau( 106) = (   0.7500003   0.0481125   0.3402076  )
       107           O   tau( 107) = (   0.8333335   0.1924499   0.3402076  )
       108           O   tau( 108) = (   0.9166668   0.0481125   0.3402076  )
       109           O   tau( 109) = (   0.0833548   0.7220663   0.4065058  )
       110           O   tau( 110) = (   0.3334305   0.2890250   0.4069547  )
       111           O   tau( 111) = (  -0.1666323   0.2885317   0.4068915  )
       112           O   tau( 112) = (  -0.4167276   0.7217363   0.4068691  )
       113           O   tau( 113) = (   0.1666871   0.5780799   0.4063147  )
       114           O   tau( 114) = (   0.4165116   0.1444688   0.4069398  )
       115           O   tau( 115) = (  -0.0832149   0.1442833   0.4067754  )
       116           O   tau( 116) = (  -0.3334944   0.5775273   0.4067865  )
       117           O   tau( 117) = (  -0.0000376   0.2883090   0.4068111  )
       118           O   tau( 118) = (   0.2488644   0.7214265   0.4072440  )
       119           O   tau( 119) = (  -0.2501243   0.7217906   0.4068273  )
       120           O   tau( 120) = (   0.4998205   0.2885165   0.4067695  )
       121           O   tau( 121) = (   0.0834214   0.4324487   0.4066983  )
       122           O   tau( 122) = (   0.3333116   0.0000829   0.4068917  )
       123           O   tau( 123) = (   0.5832373   0.4329724   0.4068370  )
       124           O   tau( 124) = (   0.8334377   0.0000240   0.4067129  )
       125           O   tau( 125) = (   0.0000844  -0.0000154   0.4067467  )
       126           O   tau( 126) = (   0.2502737   0.4334468   0.4065977  )
       127           O   tau( 127) = (  -0.2502713   0.4331566   0.4069595  )
       128           O   tau( 128) = (   0.4998982   0.0001615   0.4069092  )
       129           O   tau( 129) = (   0.1666917   0.0000320   0.4068387  )
       130           O   tau( 130) = (   0.4163169   0.4325105   0.4068714  )
       131           O   tau( 131) = (  -0.0836533   0.4329452   0.4066713  )
       132           O   tau( 132) = (   0.6664216   0.0001217   0.4068154  )
       133           O   tau( 133) = (   0.1665409   0.2886751   0.4066384  )
       134           O   tau( 134) = (   0.4168073   0.7216837   0.4066882  )
       135           O   tau( 135) = (  -0.0831384   0.7216202   0.4069057  )
       136           O   tau( 136) = (   0.6666037   0.2886117   0.4067808  )
       137           O   tau( 137) = (   0.2500473   0.1446508   0.4069083  )
       138           O   tau( 138) = (  -0.0006243   0.5776735   0.4062360  )
       139           O   tau( 139) = (   0.5000230   0.5773786   0.4066872  )
       140           O   tau( 140) = (   0.7501028   0.1441723   0.4067689  )
       141           O   tau( 141) = (   0.0833016   0.1443650   0.4068496  )
       142           O   tau( 142) = (   0.3320486   0.5764953   0.4075045  )
       143           O   tau( 143) = (  -0.1668953   0.5773868   0.4069029  )
       144           O   tau( 144) = (   0.5832495   0.1442487   0.4067055  )
       145           Ce  tau( 145) = (   0.0825260   0.6257356   0.4403080  )
       146           Ce  tau( 146) = (   0.3333988   0.1924318   0.4416560  )
       147           Ce  tau( 147) = (   0.5832817   0.6255281   0.4416849  )
       148           Ce  tau( 148) = (   0.8332739   0.1923502   0.4417956  )
       149           Ce  tau( 149) = (  -0.0002525   0.7701786   0.4415038  )
       150           Ce  tau( 150) = (   0.2499006   0.3366237   0.4413238  )
       151           Ce  tau( 151) = (   0.4999625   0.7697760   0.4416046  )
       152           Ce  tau( 152) = (   0.7498362   0.3367248   0.4418320  )
       153           Ce  tau( 153) = (   0.1662417   0.7703683   0.4416851  )
       154           Ce  tau( 154) = (   0.4169340   0.3365429   0.4417509  )
       155           Ce  tau( 155) = (  -0.0836082   0.3365413   0.4416585  )
       156           Ce  tau( 156) = (  -0.3333703   0.7698952   0.4417969  )
       157           Ce  tau( 157) = (   0.1657969   0.4805846   0.4402051  )
       158           Ce  tau( 158) = (   0.4164874   0.0483377   0.4417030  )
       159           Ce  tau( 159) = (   0.6665356   0.4810655   0.4417773  )
       160           Ce  tau( 160) = (   0.9167135   0.0481865   0.4417452  )
       161           Ce  tau( 161) = (   0.0830594   0.3361921   0.4414650  )
       162           Ce  tau( 162) = (   0.3334268   0.7700327   0.4415837  )
       163           Ce  tau( 163) = (  -0.1667809   0.7698927   0.4417358  )
       164           Ce  tau( 164) = (   0.5833979   0.3366417   0.4418270  )
       165           Ce  tau( 165) = (   0.2499267   0.0481282   0.4416683  )
       166           Ce  tau( 166) = (  -0.0007738   0.4809224   0.4412057  )
       167           Ce  tau( 167) = (   0.5002825   0.4810488   0.4416430  )
       168           Ce  tau( 168) = (   0.7500670   0.0482598   0.4416583  )
       169           Ce  tau( 169) = (  -0.0001829   0.1922610   0.4416270  )
       170           Ce  tau( 170) = (   0.2494883   0.6261149   0.4415764  )
       171           Ce  tau( 171) = (  -0.2502017   0.6254882   0.4416421  )
       172           Ce  tau( 172) = (   0.5001589   0.1924163   0.4417089  )
       173           Ce  tau( 173) = (   0.0833370   0.0479712   0.4416452  )
       174           Ce  tau( 174) = (   0.3338246   0.4806668   0.4416037  )
       175           Ce  tau( 175) = (  -0.1671541   0.4809266   0.4416663  )
       176           Ce  tau( 176) = (   0.5833557   0.0484521   0.4415711  )
       177           Ce  tau( 177) = (   0.1666043   0.1923345   0.4415876  )
       178           Ce  tau( 178) = (   0.4166243   0.6253773   0.4416730  )
       179           Ce  tau( 179) = (  -0.0838922   0.6254613   0.4414655  )
       180           Ce  tau( 180) = (   0.6667695   0.1924186   0.4418841  )
       181           O   tau( 181) = (   0.1675044   0.3842586   0.4763820  )
       182           O   tau( 182) = (   0.4164669   0.8178266   0.4756319  )
       183           O   tau( 183) = (  -0.0834127   0.8179491   0.4758276  )
       184           O   tau( 184) = (   0.6665580   0.3847655   0.4759013  )
       185           O   tau( 185) = (   0.0821960   0.5290436   0.4745496  )
       186           O   tau( 186) = (   0.3333404   0.0964259   0.4759108  )
       187           O   tau( 187) = (   0.5830856   0.5288265   0.4755842  )
       188           O   tau( 188) = (   0.8332063   0.0961078   0.4758982  )
       189           O   tau( 189) = (   0.2498118   0.8180132   0.4754274  )
       190           O   tau( 190) = (  -0.0000796   0.3844793   0.4751750  )
       191           O   tau( 191) = (  -0.2500051   0.8180194   0.4759389  )
       192           O   tau( 192) = (   0.4998578   0.3845768   0.4757891  )
       193           O   tau( 193) = (   0.1648302   0.6729752   0.4779650  )
       194           O   tau( 194) = (   0.4166246   0.2408119   0.4760478  )
       195           O   tau( 195) = (  -0.0835470   0.2403245   0.4759417  )
       196           O   tau( 196) = (  -0.3334800   0.6736036   0.4758052  )
       197           O   tau( 197) = (   0.0833523   0.8178209   0.4758746  )
       198           O   tau( 198) = (   0.3326070   0.3856524   0.4772088  )
       199           O   tau( 199) = (  -0.1670182   0.3848160   0.4757355  )
       200           O   tau( 200) = (  -0.4167317   0.8179608   0.4758186  )
       201           O   tau( 201) = (   0.2499802   0.2409764   0.4761699  )
       202           O   tau( 202) = (   0.0007096   0.6731033   0.4764469  )
       203           O   tau( 203) = (   0.4993602   0.6731373   0.4755279  )
       204           O   tau( 204) = (   0.7498531   0.2404167   0.4759294  )
       205           O   tau( 205) = (   0.2459723   0.5287764   0.4777993  )
       206           O   tau( 206) = (   0.0000175   0.0961735   0.4758702  )
       207           O   tau( 207) = (  -0.2502458   0.5290422   0.4757955  )
       208           O   tau( 208) = (   0.5001301   0.0964417   0.4758592  )
       209           O   tau( 209) = (   0.0836286   0.2408116   0.4760276  )
       210           O   tau( 210) = (   0.3327293   0.6735627   0.4748095  )
       211           O   tau( 211) = (  -0.1665111   0.6735593   0.4757075  )
       212           O   tau( 212) = (   0.5833821   0.2406079   0.4759107  )
       213           O   tau( 213) = (   0.1668318   0.0963995   0.4758380  )
       214           O   tau( 214) = (   0.4166114   0.5288888   0.4747729  )
       215           O   tau( 215) = (  -0.0832520   0.5292075   0.4755417  )
       216           O   tau( 216) = (   0.6666434   0.0964735   0.4757675  )
       217           H   tau( 217) = (   0.0630478   0.5625184   0.5982126  )
       218           N   tau( 218) = (   0.1066263   0.5684957   0.5932010  )
       219           C   tau( 219) = (   0.1368338   0.6211376   0.6104439  )
       220           N   tau( 220) = (   0.1988861   0.6080813   0.6077362  )
       221           C   tau( 221) = (   0.2022239   0.5536413   0.5974734  )
       222           C   tau( 222) = (   0.2544498   0.5159800   0.5969595  )
       223           O   tau( 223) = (   0.3045628   0.5309795   0.5986744  )
       224           N   tau( 224) = (   0.2379255   0.4569806   0.5984706  )
       225           C   tau( 225) = (   0.1824206   0.4376954   0.6036375  )
       226           N   tau( 226) = (   0.1716135   0.3846402   0.6220462  )
       227           N   tau( 227) = (   0.1352176   0.4700445   0.5910099  )
       228           C   tau( 228) = (   0.1450083   0.5254728   0.5919946  )
       229           H   tau( 229) = (   0.1262376   0.6583585   0.5828350  )
       230           H   tau( 230) = (   0.2711927   0.4297175   0.6085124  )
       231           H   tau( 231) = (   0.1291043   0.3758814   0.6304784  )
       232           H   tau( 232) = (   0.2020074   0.3606464   0.6431948  )
       233           N   tau( 233) = (   0.1236353   0.6302390   0.6703440  )
       234           C   tau( 234) = (   0.1213315   0.6088021   0.7163662  )
       235           N   tau( 235) = (   0.0651994   0.4531981   0.7035884  )
       236           C   tau( 236) = (   0.0814294   0.4895390   0.7350057  )
       237           N   tau( 237) = (   0.2199663   0.4807106   0.7203484  )
       238           C   tau( 238) = (   0.1863680   0.5073747   0.7475713  )
       239           Fe  tau( 239) = (   0.1194414   0.5523556   0.7860692  )
       240           C   tau( 240) = (   0.0395619   0.5880059   0.7948286  )
       241           N   tau( 241) = (  -0.0039551   0.6128110   0.7872316  )
       242           C   tau( 242) = (   0.1775994   0.6092095   0.8206965  )
       243           N   tau( 243) = (   0.2100784   0.6469082   0.8302851  )
       244           C   tau( 244) = (   0.1131804   0.5103887   0.8614729  )
       245           N   tau( 245) = (   0.1093789   0.4846784   0.9049799  )

     number of k points=     1  Methfessel-Paxton smearing, width (Ry)=  0.0200
                       cart. coord. in units 2pi/alat
        k(    1) = (   0.0000000   0.0000000   0.0000000), wk =   1.0000000

     Dense  grid:  4559640 G-vectors     FFT dimensions: ( 250, 250, 324)

     Smooth grid:  1612213 G-vectors     FFT dimensions: ( 180, 180, 240)

     Estimated max dynamical RAM per process >     451.62 MB

     Estimated total dynamical RAM >     127.02 GB

     Check: negative core charge=   -0.000004
     Generating pointlists ...
     new r_m :   0.0216 (alat units)  0.9464 (a.u.) for type    1
     new r_m :   0.0413 (alat units)  1.8082 (a.u.) for type    2
     new r_m :   0.0182 (alat units)  0.7978 (a.u.) for type    3
     new r_m :   0.0182 (alat units)  0.7978 (a.u.) for type    4
     new r_m :   0.0196 (alat units)  0.8596 (a.u.) for type    5
     new r_m :   0.0357 (alat units)  1.5645 (a.u.) for type    6

     Initial potential from superposition of free atoms

     starting charge    1853.4956, renormalised to    1854.0000

     negative rho (up, down):  1.944E-02 1.257E-02
     Number of +U iterations with fixed ns =  0
     Starting occupations:

     Hubbard parameters (eV):
     U(  2) =  5.0000
     U(  6) =  6.0000

     ================= HUBBARD OCCUPATIONS ================
     --------------------- ATOM   37 ----------------------
     Tr[ns] (up, down, total) =   2.00000  0.00000  2.00000
     Atomic magnetic moment =   2.00000
     SPIN  1
     eigenvalues:
       0.286  0.286  0.286  0.286  0.286  0.286  0.286
     eigenvectors (columns):
       1.000  0.000  0.000  0.000  0.000  0.000  0.000
       0.000  1.000  0.000  0.000  0.000  0.000  0.000
       0.000  0.000  1.000  0.000  0.000  0.000  0.000
       0.000  0.000  0.000  1.000  0.000  0.000  0.000
       0.000  0.000  0.000  0.000  1.000  0.000  0.000
       0.000  0.000  0.000  0.000  0.000  1.000  0.000
       0.000  0.000  0.000  0.000  0.000  0.000  1.000
     occupation matrix ns (before diag.):
       0.286  0.000  0.000  0.000  0.000  0.000  0.000
       0.000  0.286  0.000  0.000  0.000  0.000  0.000
       0.000  0.000  0.286  0.000  0.000  0.000  0.000
       0.000  0.000  0.000  0.286  0.000  0.000  0.000
       0.000  0.000  0.000  0.000  0.286  0.000  0.000
       0.000  0.000  0.000  0.000  0.000  0.286  0.000
       0.000  0.000  0.000  0.000  0.000  0.000  0.286
     SPIN  2
     eigenvalues:
       0.000  0.000  0.000  0.000  0.000  0.000  0.000
     eigenvectors (columns):
       1.000  0.000  0.000  0.000  0.000  0.000  0.000
       0.000  1.000  0.000  0.000  0.000  0.000  0.000
       0.000  0.000  1.000  0.000  0.000  0.000  0.000
       0.000  0.000  0.000  1.000  0.000  0.000  0.000
       0.000  0.000  0.000  0.000  1.000  0.000  0.000
       0.000  0.000  0.000  0.000  0.000  1.000  0.000
       0.000  0.000  0.000  0.000  0.000  0.000  1.000
     occupation matrix ns (before diag.):
       0.000  0.000  0.000  0.000  0.000  0.000  0.000
       0.000  0.000  0.000  0.000  0.000  0.000  0.000
       0.000  0.000  0.000  0.000  0.000  0.000  0.000
       0.000  0.000  0.000  0.000  0.000  0.000  0.000
       0.000  0.000  0.000  0.000  0.000  0.000  0.000
       0.000  0.000  0.000  0.000  0.000  0.000  0.000
       0.000  0.000  0.000  0.000  0.000  0.000  0.000
     --------------------- ATOM   38 ----------------------
     Tr[ns] (up, down, total) =   2.00000  0.00000  2.00000
     Atomic magnetic moment =   2.00000
     SPIN  1
     eigenvalues:
       0.286  0.286  0.286  0.286  0.286  0.286  0.286
     eigenvectors (columns):
       1.000  0.000  0.000  0.000  0.000  0.000  0.000
       0.000  1.000  0.000  0.000  0.000  0.000  0.000
       0.000  0.000  1.000  0.000  0.000  0.000  0.000
       0.000  0.000  0.000  1.000  0.000  0.000  0.000
       0.000  0.000  0.000  0.000  1.000  0.000  0.000
       0.000  0.000  0.000  0.000  0.000  1.000  0.000
       0.000  0.000  0.000  0.000  0.000  0.000  1.000
     occupation matrix ns (before diag.):
       0.286  0.000  0.000  0.000  0.000  0.000  0.000
       0.000  0.286  0.000  0.000  0.000  0.000  0.000
       0.000  0.000  0.286  0.000  0.000  0.000  0.000
       0.000  0.000  0.000  0.286  0.000  0.000  0.000
       0.000  0.000  0.000  0.000  0.286  0.000  0.000
       0.000  0.000  0.000  0.000  0.000  0.286  0.000
       0.000  0.000  0.000  0.000  0.000  0.000  0.286
     SPIN  2
     eigenvalues:
       0.000  0.000  0.000  0.000  0.000  0.000  0.000
     eigenvectors (columns):
       1.000  0.000  0.000  0.000  0.000  0.000  0.000
       0.000  1.000  0.000  0.000  0.000  0.000  0.000
       0.000  0.000  1.000  0.000  0.000  0.000  0.000
       0.000  0.000  0.000  1.000  0.000  0.000  0.000
       0.000  0.000  0.000  0.000  1.000  0.000  0.000
       0.000  0.000  0.000  0.000  0.000  1.000  0.000
       0.000  0.000  0.000  0.000  0.000  0.000  1.000
     occupation matrix ns (before diag.):
       0.000  0.000  0.000  0.000  0.000  0.000  0.000
       0.000  0.000  0.000  0.000  0.000  0.000  0.000
       0.000  0.000  0.000  0.000  0.000  0.000  0.000
       0.000  0.000  0.000  0.000  0.000  0.000  0.000
       0.000  0.000  0.000  0.000  0.000  0.000  0.000
       0.000  0.000  0.000  0.000  0.000  0.000  0.000
       0.000  0.000  0.000  0.000  0.000  0.000  0.000
     --------------------- ATOM   39 ----------------------
     Tr[ns] (up, down, total) =   2.00000  0.00000  2.00000
     Atomic magnetic moment =   2.00000
     SPIN  1
     eigenvalues:
       0.286  0.286  0.286  0.286  0.286  0.286  0.286
     eigenvectors (columns):
       1.000  0.000  0.000  0.000  0.000  0.000  0.000
       0.000  1.000  0.000  0.000  0.000  0.000  0.000
       0.000  0.000  1.000  0.000  0.000  0.000  0.000
       0.000  0.000  0.000  1.000  0.000  0.000  0.000
       0.000  0.000  0.000  0.000  1.000  0.000  0.000
       0.000  0.000  0.000  0.000  0.000  1.000  0.000
       0.000  0.000  0.000  0.000  0.000  0.000  1.000
     occupation matrix ns (before diag.):
       0.286  0.000  0.000  0.000  0.000  0.000  0.000
       0.000  0.286  0.000  0.000  0.000  0.000  0.000
       0.000  0.000  0.286  0.000  0.000  0.000  0.000
       0.000  0.000  0.000  0.286  0.000  0.000  0.000
       0.000  0.000  0.000  0.000  0.286  0.000  0.000
       0.000  0.000  0.000  0.000  0.000  0.286  0.000
       0.000  0.000  0.000  0.000  0.000  0.000  0.286
     SPIN  2
     eigenvalues:
       0.000  0.000  0.000  0.000  0.000  0.000  0.000
     eigenvectors (columns):
       1.000  0.000  0.000  0.000  0.000  0.000  0.000
       0.000  1.000  0.000  0.000  0.000  0.000  0.000
       0.000  0.000  1.000  0.000  0.000  0.000  0.000
       0.000  0.000  0.000  1.000  0.000  0.000  0.000
       0.000  0.000  0.000  0.000  1.000  0.000  0.000
       0.000  0.000  0.000  0.000  0.000  1.000  0.000
       0.000  0.000  0.000  0.000  0.000  0.000  1.000
     occupation matrix ns (before diag.):
       0.000  0.000  0.000  0.000  0.000  0.000  0.000
       0.000  0.000  0.000  0.000  0.000  0.000  0.000
       0.000  0.000  0.000  0.000  0.000  0.000  0.000
       0.000  0.000  0.000  0.000  0.000  0.000  0.000
       0.000  0.000  0.000  0.000  0.000  0.000  0.000
       0.000  0.000  0.000  0.000  0.000  0.000  0.000
       0.000  0.000  0.000  0.000  0.000  0.000  0.000
     --------------------- ATOM   40 ----------------------
     Tr[ns] (up, down, total) =   2.00000  0.00000  2.00000
     Atomic magnetic moment =   2.00000
     SPIN  1
     eigenvalues:
       0.286  0.286  0.286  0.286  0.286  0.286  0.286
     eigenvectors (columns):
       1.000  0.000  0.000  0.000  0.000  0.000  0.000
       0.000  1.000  0.000  0.000  0.000  0.000  0.000
       0.000  0.000  1.000  0.000  0.000  0.000  0.000
       0.000  0.000  0.000  1.000  0.000  0.000  0.000
       0.000  0.000  0.000  0.000  1.000  0.000  0.000
       0.000  0.000  0.000  0.000  0.000  1.000  0.000
       0.000  0.000  0.000  0.000  0.000  0.000  1.000
     occupation matrix ns (before diag.):
       0.286  0.000  0.000  0.000  0.000  0.000  0.000
       0.000  0.286  0.000  0.000  0.000  0.000  0.000
       0.000  0.000  0.286  0.000  0.000  0.000  0.000
       0.000  0.000  0.000  0.286  0.000  0.000  0.000
       0.000  0.000  0.000  0.000  0.286  0.000  0.000
       0.000  0.000  0.000  0.000  0.000  0.286  0.000
       0.000  0.000  0.000  0.000  0.000  0.000  0.286
     SPIN  2
     eigenvalues:
       0.000  0.000  0.000  0.000  0.000  0.000  0.000
     eigenvectors (columns):
       1.000  0.000  0.000  0.000  0.000  0.000  0.000
       0.000  1.000  0.000  0.000  0.000  0.000  0.000
       0.000  0.000  1.000  0.000  0.000  0.000  0.000
       0.000  0.000  0.000  1.000  0.000  0.000  0.000
       0.000  0.000  0.000  0.000  1.000  0.000  0.000
       0.000  0.000  0.000  0.000  0.000  1.000  0.000
       0.000  0.000  0.000  0.000  0.000  0.000  1.000
     occupation matrix ns (before diag.):
       0.000  0.000  0.000  0.000  0.000  0.000  0.000
       0.000  0.000  0.000  0.000  0.000  0.000  0.000
       0.000  0.000  0.000  0.000  0.000  0.000  0.000
       0.000  0.000  0.000  0.000  0.000  0.000  0.000
       0.000  0.000  0.000  0.000  0.000  0.000  0.000
       0.000  0.000  0.000  0.000  0.000  0.000  0.000
       0.000  0.000  0.000  0.000  0.000  0.000  0.000
     --------------------- ATOM   41 ----------------------
     Tr[ns] (up, down, total) =   2.00000  0.00000  2.00000
     Atomic magnetic moment =   2.00000
     SPIN  1
     eigenvalues:
       0.286  0.286  0.286  0.286  0.286  0.286  0.286
     eigenvectors (columns):
       1.000  0.000  0.000  0.000  0.000  0.000  0.000
       0.000  1.000  0.000  0.000  0.000  0.000  0.000
       0.000  0.000  1.000  0.000  0.000  0.000  0.000
       0.000  0.000  0.000  1.000  0.000  0.000  0.000
       0.000  0.000  0.000  0.000  1.000  0.000  0.000
       0.000  0.000  0.000  0.000  0.000  1.000  0.000
       0.000  0.000  0.000  0.000  0.000  0.000  1.000
     occupation matrix ns (before diag.):
       0.286  0.000  0.000  0.000  0.000  0.000  0.000
       0.000  0.286  0.000  0.000  0.000  0.000  0.000
       0.000  0.000  0.286  0.000  0.000  0.000  0.000
       0.000  0.000  0.000  0.286  0.000  0.000  0.000
       0.000  0.000  0.000  0.000  0.286  0.000  0.000
       0.000  0.000  0.000  0.000  0.000  0.286  0.000
       0.000  0.000  0.000  0.000  0.000  0.000  0.286
     SPIN  2
     eigenvalues:
       0.000  0.000  0.000  0.000  0.000  0.000  0.000
     eigenvectors (columns):
       1.000  0.000  0.000  0.000  0.000  0.000  0.000
       0.000  1.000  0.000  0.000  0.000  0.000  0.000
       0.000  0.000  1.000  0.000  0.000  0.000  0.000
       0.000  0.000  0.000  1.000  0.000  0.000  0.000
       0.000  0.000  0.000  0.000  1.000  0.000  0.000
       0.000  0.000  0.000  0.000  0.000  1.000  0.000
       0.000  0.000  0.000  0.000  0.000  0.000  1.000
     occupation matrix ns (before diag.):
       0.000  0.000  0.000  0.000  0.000  0.000  0.000
       0.000  0.000  0.000  0.000  0.000  0.000  0.000
       0.000  0.000  0.000  0.000  0.000  0.000  0.000
       0.000  0.000  0.000  0.000  0.000  0.000  0.000
       0.000  0.000  0.000  0.000  0.000  0.000  0.000
       0.000  0.000  0.000  0.000  0.000  0.000  0.000
       0.000  0.000  0.000  0.000  0.000  0.000  0.000
     --------------------- ATOM   42 ----------------------
     Tr[ns] (up, down, total) =   2.00000  0.00000  2.00000
     Atomic magnetic moment =   2.00000
     SPIN  1
     eigenvalues:
       0.286  0.286  0.286  0.286  0.286  0.286  0.286
     eigenvectors (columns):
       1.000  0.000  0.000  0.000  0.000  0.000  0.000
       0.000  1.000  0.000  0.000  0.000  0.000  0.000
       0.000  0.000  1.000  0.000  0.000  0.000  0.000
       0.000  0.000  0.000  1.000  0.000  0.000  0.000
       0.000  0.000  0.000  0.000  1.000  0.000  0.000
       0.000  0.000  0.000  0.000  0.000  1.000  0.000
       0.000  0.000  0.000  0.000  0.000  0.000  1.000
     occupation matrix ns (before diag.):
       0.286  0.000  0.000  0.000  0.000  0.000  0.000
       0.000  0.286  0.000  0.000  0.000  0.000  0.000
       0.000  0.000  0.286  0.000  0.000  0.000  0.000
       0.000  0.000  0.000  0.286  0.000  0.000  0.000
       0.000  0.000  0.000  0.000  0.286  0.000  0.000
       0.000  0.000  0.000  0.000  0.000  0.286  0.000
       0.000  0.000  0.000  0.000  0.000  0.000  0.286
     SPIN  2
     eigenvalues:
       0.000  0.000  0.000  0.000  0.000  0.000  0.000
     eigenvectors (columns):
       1.000  0.000  0.000  0.000  0.000  0.000  0.000
       0.000  1.000  0.000  0.000  0.000  0.000  0.000
       0.000  0.000  1.000  0.000  0.000  0.000  0.000
       0.000  0.000  0.000  1.000  0.000  0.000  0.000
       0.000  0.000  0.000  0.000  1.000  0.000  0.000
       0.000  0.000  0.000  0.000  0.000  1.000  0.000
       0.000  0.000  0.000  0.000  0.000  0.000  1.000
     occupation matrix ns (before diag.):
       0.000  0.000  0.000  0.000  0.000  0.000  0.000
       0.000  0.000  0.000  0.000  0.000  0.000  0.000
       0.000  0.000  0.000  0.000  0.000  0.000  0.000
       0.000  0.000  0.000  0.000  0.000  0.000  0.000
       0.000  0.000  0.000  0.000  0.000  0.000  0.000
       0.000  0.000  0.000  0.000  0.000  0.000  0.000
       0.000  0.000  0.000  0.000  0.000  0.000  0.000
     --------------------- ATOM   43 ----------------------
     Tr[ns] (up, down, total) =   2.00000  0.00000  2.00000
     Atomic magnetic moment =   2.00000
     SPIN  1
     eigenvalues:
       0.286  0.286  0.286  0.286  0.286  0.286  0.286
     eigenvectors (columns):
       1.000  0.000  0.000  0.000  0.000  0.000  0.000
       0.000  1.000  0.000  0.000  0.000  0.000  0.000
       0.000  0.000  1.000  0.000  0.000  0.000  0.000
       0.000  0.000  0.000  1.000  0.000  0.000  0.000
       0.000  0.000  0.000  0.000  1.000  0.000  0.000
       0.000  0.000  0.000  0.000  0.000  1.000  0.000
       0.000  0.000  0.000  0.000  0.000  0.000  1.000
     occupation matrix ns (before diag.):
       0.286  0.000  0.000  0.000  0.000  0.000  0.000
       0.000  0.286  0.000  0.000  0.000  0.000  0.000
       0.000  0.000  0.286  0.000  0.000  0.000  0.000
       0.000  0.000  0.000  0.286  0.000  0.000  0.000
       0.000  0.000  0.000  0.000  0.286  0.000  0.000
       0.000  0.000  0.000  0.000  0.000  0.286  0.000
       0.000  0.000  0.000  0.000  0.000  0.000  0.286
     SPIN  2
     eigenvalues:
       0.000  0.000  0.000  0.000  0.000  0.000  0.000
     eigenvectors (columns):
       1.000  0.000  0.000  0.000  0.000  0.000  0.000
       0.000  1.000  0.000  0.000  0.000  0.000  0.000
       0.000  0.000  1.000  0.000  0.000  0.000  0.000
       0.000  0.000  0.000  1.000  0.000  0.000  0.000
       0.000  0.000  0.000  0.000  1.000  0.000  0.000
       0.000  0.000  0.000  0.000  0.000  1.000  0.000
       0.000  0.000  0.000  0.000  0.000  0.000  1.000
     occupation matrix ns (before diag.):
       0.000  0.000  0.000  0.000  0.000  0.000  0.000
       0.000  0.000  0.000  0.000  0.000  0.000  0.000
       0.000  0.000  0.000  0.000  0.000  0.000  0.000
       0.000  0.000  0.000  0.000  0.000  0.000  0.000
       0.000  0.000  0.000  0.000  0.000  0.000  0.000
       0.000  0.000  0.000  0.000  0.000  0.000  0.000
       0.000  0.000  0.000  0.000  0.000  0.000  0.000
     --------------------- ATOM   44 ----------------------
     Tr[ns] (up, down, total) =   2.00000  0.00000  2.00000
     Atomic magnetic moment =   2.00000
     SPIN  1
     eigenvalues:
       0.286  0.286  0.286  0.286  0.286  0.286  0.286
     eigenvectors (columns):
       1.000  0.000  0.000  0.000  0.000  0.000  0.000
       0.000  1.000  0.000  0.000  0.000  0.000  0.000
       0.000  0.000  1.000  0.000  0.000  0.000  0.000
       0.000  0.000  0.000  1.000  0.000  0.000  0.000
       0.000  0.000  0.000  0.000  1.000  0.000  0.000
       0.000  0.000  0.000  0.000  0.000  1.000  0.000
       0.000  0.000  0.000  0.000  0.000  0.000  1.000
     occupation matrix ns (before diag.):
       0.286  0.000  0.000  0.000  0.000  0.000  0.000
       0.000  0.286  0.000  0.000  0.000  0.000  0.000
       0.000  0.000  0.286  0.000  0.000  0.000  0.000
       0.000  0.000  0.000  0.286  0.000  0.000  0.000
       0.000  0.000  0.000  0.000  0.286  0.000  0.000
       0.000  0.000  0.000  0.000  0.000  0.286  0.000
       0.000  0.000  0.000  0.000  0.000  0.000  0.286
     SPIN  2
     eigenvalues:
       0.000  0.000  0.000  0.000  0.000  0.000  0.000
     eigenvectors (columns):
       1.000  0.000  0.000  0.000  0.000  0.000  0.000
       0.000  1.000  0.000  0.000  0.000  0.000  0.000
       0.000  0.000  1.000  0.000  0.000  0.000  0.000
       0.000  0.000  0.000  1.000  0.000  0.000  0.000
       0.000  0.000  0.000  0.000  1.000  0.000  0.000
       0.000  0.000  0.000  0.000  0.000  1.000  0.000
       0.000  0.000  0.000  0.000  0.000  0.000  1.000
     occupation matrix ns (before diag.):
       0.000  0.000  0.000  0.000  0.000  0.000  0.000
       0.000  0.000  0.000  0.000  0.000  0.000  0.000
       0.000  0.000  0.000  0.000  0.000  0.000  0.000
       0.000  0.000  0.000  0.000  0.000  0.000  0.000
       0.000  0.000  0.000  0.000  0.000  0.000  0.000
       0.000  0.000  0.000  0.000  0.000  0.000  0.000
       0.000  0.000  0.000  0.000  0.000  0.000  0.000
     --------------------- ATOM   45 ----------------------
     Tr[ns] (up, down, total) =   2.00000  0.00000  2.00000
     Atomic magnetic moment =   2.00000
     SPIN  1
     eigenvalues:
       0.286  0.286  0.286  0.286  0.286  0.286  0.286
     eigenvectors (columns):
       1.000  0.000  0.000  0.000  0.000  0.000  0.000
       0.000  1.000  0.000  0.000  0.000  0.000  0.000
       0.000  0.000  1.000  0.000  0.000  0.000  0.000
       0.000  0.000  0.000  1.000  0.000  0.000  0.000
       0.000  0.000  0.000  0.000  1.000  0.000  0.000
       0.000  0.000  0.000  0.000  0.000  1.000  0.000
       0.000  0.000  0.000  0.000  0.000  0.000  1.000
     occupation matrix ns (before diag.):
       0.286  0.000  0.000  0.000  0.000  0.000  0.000
       0.000  0.286  0.000  0.000  0.000  0.000  0.000
       0.000  0.000  0.286  0.000  0.000  0.000  0.000
       0.000  0.000  0.000  0.286  0.000  0.000  0.000
       0.000  0.000  0.000  0.000  0.286  0.000  0.000
       0.000  0.000  0.000  0.000  0.000  0.286  0.000
       0.000  0.000  0.000  0.000  0.000  0.000  0.286
     SPIN  2
     eigenvalues:
       0.000  0.000  0.000  0.000  0.000  0.000  0.000
     eigenvectors (columns):
       1.000  0.000  0.000  0.000  0.000  0.000  0.000
       0.000  1.000  0.000  0.000  0.000  0.000  0.000
       0.000  0.000  1.000  0.000  0.000  0.000  0.000
       0.000  0.000  0.000  1.000  0.000  0.000  0.000
       0.000  0.000  0.000  0.000  1.000  0.000  0.000
       0.000  0.000  0.000  0.000  0.000  1.000  0.000
       0.000  0.000  0.000  0.000  0.000  0.000  1.000
     occupation matrix ns (before diag.):
       0.000  0.000  0.000  0.000  0.000  0.000  0.000
       0.000  0.000  0.000  0.000  0.000  0.000  0.000
       0.000  0.000  0.000  0.000  0.000  0.000  0.000
       0.000  0.000  0.000  0.000  0.000  0.000  0.000
       0.000  0.000  0.000  0.000  0.000  0.000  0.000
       0.000  0.000  0.000  0.000  0.000  0.000  0.000
       0.000  0.000  0.000  0.000  0.000  0.000  0.000
     --------------------- ATOM   46 ----------------------
     Tr[ns] (up, down, total) =   2.00000  0.00000  2.00000
     Atomic magnetic moment =   2.00000
     SPIN  1
     eigenvalues:
       0.286  0.286  0.286  0.286  0.286  0.286  0.286
     eigenvectors (columns):
       1.000  0.000  0.000  0.000  0.000  0.000  0.000
       0.000  1.000  0.000  0.000  0.000  0.000  0.000
       0.000  0.000  1.000  0.000  0.000  0.000  0.000
       0.000  0.000  0.000  1.000  0.000  0.000  0.000
       0.000  0.000  0.000  0.000  1.000  0.000  0.000
       0.000  0.000  0.000  0.000  0.000  1.000  0.000
       0.000  0.000  0.000  0.000  0.000  0.000  1.000
     occupation matrix ns (before diag.):
       0.286  0.000  0.000  0.000  0.000  0.000  0.000
       0.000  0.286  0.000  0.000  0.000  0.000  0.000
       0.000  0.000  0.286  0.000  0.000  0.000  0.000
       0.000  0.000  0.000  0.286  0.000  0.000  0.000
       0.000  0.000  0.000  0.000  0.286  0.000  0.000
       0.000  0.000  0.000  0.000  0.000  0.286  0.000
       0.000  0.000  0.000  0.000  0.000  0.000  0.286
     SPIN  2
     eigenvalues:
       0.000  0.000  0.000  0.000  0.000  0.000  0.000
     eigenvectors (columns):
       1.000  0.000  0.000  0.000  0.000  0.000  0.000
       0.000  1.000  0.000  0.000  0.000  0.000  0.000
       0.000  0.000  1.000  0.000  0.000  0.000  0.000
       0.000  0.000  0.000  1.000  0.000  0.000  0.000
       0.000  0.000  0.000  0.000  1.000  0.000  0.000
       0.000  0.000  0.000  0.000  0.000  1.000  0.000
       0.000  0.000  0.000  0.000  0.000  0.000  1.000
     occupation matrix ns (before diag.):
       0.000  0.000  0.000  0.000  0.000  0.000  0.000
       0.000  0.000  0.000  0.000  0.000  0.000  0.000
       0.000  0.000  0.000  0.000  0.000  0.000  0.000
       0.000  0.000  0.000  0.000  0.000  0.000  0.000
       0.000  0.000  0.000  0.000  0.000  0.000  0.000
       0.000  0.000  0.000  0.000  0.000  0.000  0.000
       0.000  0.000  0.000  0.000  0.000  0.000  0.000
     --------------------- ATOM   47 ----------------------
     Tr[ns] (up, down, total) =   2.00000  0.00000  2.00000
     Atomic magnetic moment =   2.00000
     SPIN  1
     eigenvalues:
       0.286  0.286  0.286  0.286  0.286  0.286  0.286
     eigenvectors (columns):
       1.000  0.000  0.000  0.000  0.000  0.000  0.000
       0.000  1.000  0.000  0.000  0.000  0.000  0.000
       0.000  0.000  1.000  0.000  0.000  0.000  0.000
       0.000  0.000  0.000  1.000  0.000  0.000  0.000
       0.000  0.000  0.000  0.000  1.000  0.000  0.000
       0.000  0.000  0.000  0.000  0.000  1.000  0.000
       0.000  0.000  0.000  0.000  0.000  0.000  1.000
     occupation matrix ns (before diag.):
       0.286  0.000  0.000  0.000  0.000  0.000  0.000
       0.000  0.286  0.000  0.000  0.000  0.000  0.000
       0.000  0.000  0.286  0.000  0.000  0.000  0.000
       0.000  0.000  0.000  0.286  0.000  0.000  0.000
       0.000  0.000  0.000  0.000  0.286  0.000  0.000
       0.000  0.000  0.000  0.000  0.000  0.286  0.000
       0.000  0.000  0.000  0.000  0.000  0.000  0.286
     SPIN  2
     eigenvalues:
       0.000  0.000  0.000  0.000  0.000  0.000  0.000
     eigenvectors (columns):
       1.000  0.000  0.000  0.000  0.000  0.000  0.000
       0.000  1.000  0.000  0.000  0.000  0.000  0.000
       0.000  0.000  1.000  0.000  0.000  0.000  0.000
       0.000  0.000  0.000  1.000  0.000  0.000  0.000
       0.000  0.000  0.000  0.000  1.000  0.000  0.000
       0.000  0.000  0.000  0.000  0.000  1.000  0.000
       0.000  0.000  0.000  0.000  0.000  0.000  1.000
     occupation matrix ns (before diag.):
       0.000  0.000  0.000  0.000  0.000  0.000  0.000
       0.000  0.000  0.000  0.000  0.000  0.000  0.000
       0.000  0.000  0.000  0.000  0.000  0.000  0.000
       0.000  0.000  0.000  0.000  0.000  0.000  0.000
       0.000  0.000  0.000  0.000  0.000  0.000  0.000
       0.000  0.000  0.000  0.000  0.000  0.000  0.000
       0.000  0.000  0.000  0.000  0.000  0.000  0.000
     --------------------- ATOM   48 ----------------------
     Tr[ns] (up, down, total) =   2.00000  0.00000  2.00000
     Atomic magnetic moment =   2.00000
     SPIN  1
     eigenvalues:
       0.286  0.286  0.286  0.286  0.286  0.286  0.286
     eigenvectors (columns):
       1.000  0.000  0.000  0.000  0.000  0.000  0.000
       0.000  1.000  0.000  0.000  0.000  0.000  0.000
       0.000  0.000  1.000  0.000  0.000  0.000  0.000
       0.000  0.000  0.000  1.000  0.000  0.000  0.000
       0.000  0.000  0.000  0.000  1.000  0.000  0.000
       0.000  0.000  0.000  0.000  0.000  1.000  0.000
       0.000  0.000  0.000  0.000  0.000  0.000  1.000
     occupation matrix ns (before diag.):
       0.286  0.000  0.000  0.000  0.000  0.000  0.000
       0.000  0.286  0.000  0.000  0.000  0.000  0.000
       0.000  0.000  0.286  0.000  0.000  0.000  0.000
       0.000  0.000  0.000  0.286  0.000  0.000  0.000
       0.000  0.000  0.000  0.000  0.286  0.000  0.000
       0.000  0.000  0.000  0.000  0.000  0.286  0.000
       0.000  0.000  0.000  0.000  0.000  0.000  0.286
     SPIN  2
     eigenvalues:
       0.000  0.000  0.000  0.000  0.000  0.000  0.000
     eigenvectors (columns):
       1.000  0.000  0.000  0.000  0.000  0.000  0.000
       0.000  1.000  0.000  0.000  0.000  0.000  0.000
       0.000  0.000  1.000  0.000  0.000  0.000  0.000
       0.000  0.000  0.000  1.000  0.000  0.000  0.000
       0.000  0.000  0.000  0.000  1.000  0.000  0.000
       0.000  0.000  0.000  0.000  0.000  1.000  0.000
       0.000  0.000  0.000  0.000  0.000  0.000  1.000
     occupation matrix ns (before diag.):
       0.000  0.000  0.000  0.000  0.000  0.000  0.000
       0.000  0.000  0.000  0.000  0.000  0.000  0.000
       0.000  0.000  0.000  0.000  0.000  0.000  0.000
       0.000  0.000  0.000  0.000  0.000  0.000  0.000
       0.000  0.000  0.000  0.000  0.000  0.000  0.000
       0.000  0.000  0.000  0.000  0.000  0.000  0.000
       0.000  0.000  0.000  0.000  0.000  0.000  0.000
     --------------------- ATOM   49 ----------------------
     Tr[ns] (up, down, total) =   2.00000  0.00000  2.00000
     Atomic magnetic moment =   2.00000
     SPIN  1
     eigenvalues:
       0.286  0.286  0.286  0.286  0.286  0.286  0.286
     eigenvectors (columns):
       1.000  0.000  0.000  0.000  0.000  0.000  0.000
       0.000  1.000  0.000  0.000  0.000  0.000  0.000
       0.000  0.000  1.000  0.000  0.000  0.000  0.000
       0.000  0.000  0.000  1.000  0.000  0.000  0.000
       0.000  0.000  0.000  0.000  1.000  0.000  0.000
       0.000  0.000  0.000  0.000  0.000  1.000  0.000
       0.000  0.000  0.000  0.000  0.000  0.000  1.000
     occupation matrix ns (before diag.):
       0.286  0.000  0.000  0.000  0.000  0.000  0.000
       0.000  0.286  0.000  0.000  0.000  0.000  0.000
       0.000  0.000  0.286  0.000  0.000  0.000  0.000
       0.000  0.000  0.000  0.286  0.000  0.000  0.000
       0.000  0.000  0.000  0.000  0.286  0.000  0.000
       0.000  0.000  0.000  0.000  0.000  0.286  0.000
       0.000  0.000  0.000  0.000  0.000  0.000  0.286
     SPIN  2
     eigenvalues:
       0.000  0.000  0.000  0.000  0.000  0.000  0.000
     eigenvectors (columns):
       1.000  0.000  0.000  0.000  0.000  0.000  0.000
       0.000  1.000  0.000  0.000  0.000  0.000  0.000
       0.000  0.000  1.000  0.000  0.000  0.000  0.000
       0.000  0.000  0.000  1.000  0.000  0.000  0.000
       0.000  0.000  0.000  0.000  1.000  0.000  0.000
       0.000  0.000  0.000  0.000  0.000  1.000  0.000
       0.000  0.000  0.000  0.000  0.000  0.000  1.000
     occupation matrix ns (before diag.):
       0.000  0.000  0.000  0.000  0.000  0.000  0.000
       0.000  0.000  0.000  0.000  0.000  0.000  0.000
       0.000  0.000  0.000  0.000  0.000  0.000  0.000
       0.000  0.000  0.000  0.000  0.000  0.000  0.000
       0.000  0.000  0.000  0.000  0.000  0.000  0.000
       0.000  0.000  0.000  0.000  0.000  0.000  0.000
       0.000  0.000  0.000  0.000  0.000  0.000  0.000
     --------------------- ATOM   50 ----------------------
     Tr[ns] (up, down, total) =   2.00000  0.00000  2.00000
     Atomic magnetic moment =   2.00000
     SPIN  1
     eigenvalues:
       0.286  0.286  0.286  0.286  0.286  0.286  0.286
     eigenvectors (columns):
       1.000  0.000  0.000  0.000  0.000  0.000  0.000
       0.000  1.000  0.000  0.000  0.000  0.000  0.000
       0.000  0.000  1.000  0.000  0.000  0.000  0.000
       0.000  0.000  0.000  1.000  0.000  0.000  0.000
       0.000  0.000  0.000  0.000  1.000  0.000  0.000
       0.000  0.000  0.000  0.000  0.000  1.000  0.000
       0.000  0.000  0.000  0.000  0.000  0.000  1.000
     occupation matrix ns (before diag.):
       0.286  0.000  0.000  0.000  0.000  0.000  0.000
       0.000  0.286  0.000  0.000  0.000  0.000  0.000
       0.000  0.000  0.286  0.000  0.000  0.000  0.000
       0.000  0.000  0.000  0.286  0.000  0.000  0.000
       0.000  0.000  0.000  0.000  0.286  0.000  0.000
       0.000  0.000  0.000  0.000  0.000  0.286  0.000
       0.000  0.000  0.000  0.000  0.000  0.000  0.286
     SPIN  2
     eigenvalues:
       0.000  0.000  0.000  0.000  0.000  0.000  0.000
     eigenvectors (columns):
       1.000  0.000  0.000  0.000  0.000  0.000  0.000
       0.000  1.000  0.000  0.000  0.000  0.000  0.000
       0.000  0.000  1.000  0.000  0.000  0.000  0.000
       0.000  0.000  0.000  1.000  0.000  0.000  0.000
       0.000  0.000  0.000  0.000  1.000  0.000  0.000
       0.000  0.000  0.000  0.000  0.000  1.000  0.000
       0.000  0.000  0.000  0.000  0.000  0.000  1.000
     occupation matrix ns (before diag.):
       0.000  0.000  0.000  0.000  0.000  0.000  0.000
       0.000  0.000  0.000  0.000  0.000  0.000  0.000
       0.000  0.000  0.000  0.000  0.000  0.000  0.000
       0.000  0.000  0.000  0.000  0.000  0.000  0.000
       0.000  0.000  0.000  0.000  0.000  0.000  0.000
       0.000  0.000  0.000  0.000  0.000  0.000  0.000
       0.000  0.000  0.000  0.000  0.000  0.000  0.000
     --------------------- ATOM   51 ----------------------
     Tr[ns] (up, down, total) =   2.00000  0.00000  2.00000
     Atomic magnetic moment =   2.00000
     SPIN  1
     eigenvalues:
       0.286  0.286  0.286  0.286  0.286  0.286  0.286
     eigenvectors (columns):
       1.000  0.000  0.000  0.000  0.000  0.000  0.000
       0.000  1.000  0.000  0.000  0.000  0.000  0.000
       0.000  0.000  1.000  0.000  0.000  0.000  0.000
       0.000  0.000  0.000  1.000  0.000  0.000  0.000
       0.000  0.000  0.000  0.000  1.000  0.000  0.000
       0.000  0.000  0.000  0.000  0.000  1.000  0.000
       0.000  0.000  0.000  0.000  0.000  0.000  1.000
     occupation matrix ns (before diag.):
       0.286  0.000  0.000  0.000  0.000  0.000  0.000
       0.000  0.286  0.000  0.000  0.000  0.000  0.000
       0.000  0.000  0.286  0.000  0.000  0.000  0.000
       0.000  0.000  0.000  0.286  0.000  0.000  0.000
       0.000  0.000  0.000  0.000  0.286  0.000  0.000
       0.000  0.000  0.000  0.000  0.000  0.286  0.000
       0.000  0.000  0.000  0.000  0.000  0.000  0.286
     SPIN  2
     eigenvalues:
       0.000  0.000  0.000  0.000  0.000  0.000  0.000
     eigenvectors (columns):
       1.000  0.000  0.000  0.000  0.000  0.000  0.000
       0.000  1.000  0.000  0.000  0.000  0.000  0.000
       0.000  0.000  1.000  0.000  0.000  0.000  0.000
       0.000  0.000  0.000  1.000  0.000  0.000  0.000
       0.000  0.000  0.000  0.000  1.000  0.000  0.000
       0.000  0.000  0.000  0.000  0.000  1.000  0.000
       0.000  0.000  0.000  0.000  0.000  0.000  1.000
     occupation matrix ns (before diag.):
       0.000  0.000  0.000  0.000  0.000  0.000  0.000
       0.000  0.000  0.000  0.000  0.000  0.000  0.000
       0.000  0.000  0.000  0.000  0.000  0.000  0.000
       0.000  0.000  0.000  0.000  0.000  0.000  0.000
       0.000  0.000  0.000  0.000  0.000  0.000  0.000
       0.000  0.000  0.000  0.000  0.000  0.000  0.000
       0.000  0.000  0.000  0.000  0.000  0.000  0.000
     --------------------- ATOM   52 ----------------------
     Tr[ns] (up, down, total) =   2.00000  0.00000  2.00000
     Atomic magnetic moment =   2.00000
     SPIN  1
     eigenvalues:
       0.286  0.286  0.286  0.286  0.286  0.286  0.286
     eigenvectors (columns):
       1.000  0.000  0.000  0.000  0.000  0.000  0.000
       0.000  1.000  0.000  0.000  0.000  0.000  0.000
       0.000  0.000  1.000  0.000  0.000  0.000  0.000
       0.000  0.000  0.000  1.000  0.000  0.000  0.000
       0.000  0.000  0.000  0.000  1.000  0.000  0.000
       0.000  0.000  0.000  0.000  0.000  1.000  0.000
       0.000  0.000  0.000  0.000  0.000  0.000  1.000
     occupation matrix ns (before diag.):
       0.286  0.000  0.000  0.000  0.000  0.000  0.000
       0.000  0.286  0.000  0.000  0.000  0.000  0.000
       0.000  0.000  0.286  0.000  0.000  0.000  0.000
       0.000  0.000  0.000  0.286  0.000  0.000  0.000
       0.000  0.000  0.000  0.000  0.286  0.000  0.000
       0.000  0.000  0.000  0.000  0.000  0.286  0.000
       0.000  0.000  0.000  0.000  0.000  0.000  0.286
     SPIN  2
     eigenvalues:
       0.000  0.000  0.000  0.000  0.000  0.000  0.000
     eigenvectors (columns):
       1.000  0.000  0.000  0.000  0.000  0.000  0.000
       0.000  1.000  0.000  0.000  0.000  0.000  0.000
       0.000  0.000  1.000  0.000  0.000  0.000  0.000
       0.000  0.000  0.000  1.000  0.000  0.000  0.000
       0.000  0.000  0.000  0.000  1.000  0.000  0.000
       0.000  0.000  0.000  0.000  0.000  1.000  0.000
       0.000  0.000  0.000  0.000  0.000  0.000  1.000
     occupation matrix ns (before diag.):
       0.000  0.000  0.000  0.000  0.000  0.000  0.000
       0.000  0.000  0.000  0.000  0.000  0.000  0.000
       0.000  0.000  0.000  0.000  0.000  0.000  0.000
       0.000  0.000  0.000  0.000  0.000  0.000  0.000
       0.000  0.000  0.000  0.000  0.000  0.000  0.000
       0.000  0.000  0.000  0.000  0.000  0.000  0.000
       0.000  0.000  0.000  0.000  0.000  0.000  0.000
     --------------------- ATOM   53 ----------------------
     Tr[ns] (up, down, total) =   2.00000  0.00000  2.00000
     Atomic magnetic moment =   2.00000
     SPIN  1
     eigenvalues:
       0.286  0.286  0.286  0.286  0.286  0.286  0.286
     eigenvectors (columns):
       1.000  0.000  0.000  0.000  0.000  0.000  0.000
       0.000  1.000  0.000  0.000  0.000  0.000  0.000
       0.000  0.000  1.000  0.000  0.000  0.000  0.000
       0.000  0.000  0.000  1.000  0.000  0.000  0.000
       0.000  0.000  0.000  0.000  1.000  0.000  0.000
       0.000  0.000  0.000  0.000  0.000  1.000  0.000
       0.000  0.000  0.000  0.000  0.000  0.000  1.000
     occupation matrix ns (before diag.):
       0.286  0.000  0.000  0.000  0.000  0.000  0.000
       0.000  0.286  0.000  0.000  0.000  0.000  0.000
       0.000  0.000  0.286  0.000  0.000  0.000  0.000
       0.000  0.000  0.000  0.286  0.000  0.000  0.000
       0.000  0.000  0.000  0.000  0.286  0.000  0.000
       0.000  0.000  0.000  0.000  0.000  0.286  0.000
       0.000  0.000  0.000  0.000  0.000  0.000  0.286
     SPIN  2
     eigenvalues:
       0.000  0.000  0.000  0.000  0.000  0.000  0.000
     eigenvectors (columns):
       1.000  0.000  0.000  0.000  0.000  0.000  0.000
       0.000  1.000  0.000  0.000  0.000  0.000  0.000
       0.000  0.000  1.000  0.000  0.000  0.000  0.000
       0.000  0.000  0.000  1.000  0.000  0.000  0.000
       0.000  0.000  0.000  0.000  1.000  0.000  0.000
       0.000  0.000  0.000  0.000  0.000  1.000  0.000
       0.000  0.000  0.000  0.000  0.000  0.000  1.000
     occupation matrix ns (before diag.):
       0.000  0.000  0.000  0.000  0.000  0.000  0.000
       0.000  0.000  0.000  0.000  0.000  0.000  0.000
       0.000  0.000  0.000  0.000  0.000  0.000  0.000
       0.000  0.000  0.000  0.000  0.000  0.000  0.000
       0.000  0.000  0.000  0.000  0.000  0.000  0.000
       0.000  0.000  0.000  0.000  0.000  0.000  0.000
       0.000  0.000  0.000  0.000  0.000  0.000  0.000
     --------------------- ATOM   54 ----------------------
     Tr[ns] (up, down, total) =   2.00000  0.00000  2.00000
     Atomic magnetic moment =   2.00000
     SPIN  1
     eigenvalues:
       0.286  0.286  0.286  0.286  0.286  0.286  0.286
     eigenvectors (columns):
       1.000  0.000  0.000  0.000  0.000  0.000  0.000
       0.000  1.000  0.000  0.000  0.000  0.000  0.000
       0.000  0.000  1.000  0.000  0.000  0.000  0.000
       0.000  0.000  0.000  1.000  0.000  0.000  0.000
       0.000  0.000  0.000  0.000  1.000  0.000  0.000
       0.000  0.000  0.000  0.000  0.000  1.000  0.000
       0.000  0.000  0.000  0.000  0.000  0.000  1.000
     occupation matrix ns (before diag.):
       0.286  0.000  0.000  0.000  0.000  0.000  0.000
       0.000  0.286  0.000  0.000  0.000  0.000  0.000
       0.000  0.000  0.286  0.000  0.000  0.000  0.000
       0.000  0.000  0.000  0.286  0.000  0.000  0.000
       0.000  0.000  0.000  0.000  0.286  0.000  0.000
       0.000  0.000  0.000  0.000  0.000  0.286  0.000
       0.000  0.000  0.000  0.000  0.000  0.000  0.286
     SPIN  2
     eigenvalues:
       0.000  0.000  0.000  0.000  0.000  0.000  0.000
     eigenvectors (columns):
       1.000  0.000  0.000  0.000  0.000  0.000  0.000
       0.000  1.000  0.000  0.000  0.000  0.000  0.000
       0.000  0.000  1.000  0.000  0.000  0.000  0.000
       0.000  0.000  0.000  1.000  0.000  0.000  0.000
       0.000  0.000  0.000  0.000  1.000  0.000  0.000
       0.000  0.000  0.000  0.000  0.000  1.000  0.000
       0.000  0.000  0.000  0.000  0.000  0.000  1.000
     occupation matrix ns (before diag.):
       0.000  0.000  0.000  0.000  0.000  0.000  0.000
       0.000  0.000  0.000  0.000  0.000  0.000  0.000
       0.000  0.000  0.000  0.000  0.000  0.000  0.000
       0.000  0.000  0.000  0.000  0.000  0.000  0.000
       0.000  0.000  0.000  0.000  0.000  0.000  0.000
       0.000  0.000  0.000  0.000  0.000  0.000  0.000
       0.000  0.000  0.000  0.000  0.000  0.000  0.000
     --------------------- ATOM   55 ----------------------
     Tr[ns] (up, down, total) =   2.00000  0.00000  2.00000
     Atomic magnetic moment =   2.00000
     SPIN  1
     eigenvalues:
       0.286  0.286  0.286  0.286  0.286  0.286  0.286
     eigenvectors (columns):
       1.000  0.000  0.000  0.000  0.000  0.000  0.000
       0.000  1.000  0.000  0.000  0.000  0.000  0.000
       0.000  0.000  1.000  0.000  0.000  0.000  0.000
       0.000  0.000  0.000  1.000  0.000  0.000  0.000
       0.000  0.000  0.000  0.000  1.000  0.000  0.000
       0.000  0.000  0.000  0.000  0.000  1.000  0.000
       0.000  0.000  0.000  0.000  0.000  0.000  1.000
     occupation matrix ns (before diag.):
       0.286  0.000  0.000  0.000  0.000  0.000  0.000
       0.000  0.286  0.000  0.000  0.000  0.000  0.000
       0.000  0.000  0.286  0.000  0.000  0.000  0.000
       0.000  0.000  0.000  0.286  0.000  0.000  0.000
       0.000  0.000  0.000  0.000  0.286  0.000  0.000
       0.000  0.000  0.000  0.000  0.000  0.286  0.000
       0.000  0.000  0.000  0.000  0.000  0.000  0.286
     SPIN  2
     eigenvalues:
       0.000  0.000  0.000  0.000  0.000  0.000  0.000
     eigenvectors (columns):
       1.000  0.000  0.000  0.000  0.000  0.000  0.000
       0.000  1.000  0.000  0.000  0.000  0.000  0.000
       0.000  0.000  1.000  0.000  0.000  0.000  0.000
       0.000  0.000  0.000  1.000  0.000  0.000  0.000
       0.000  0.000  0.000  0.000  1.000  0.000  0.000
       0.000  0.000  0.000  0.000  0.000  1.000  0.000
       0.000  0.000  0.000  0.000  0.000  0.000  1.000
     occupation matrix ns (before diag.):
       0.000  0.000  0.000  0.000  0.000  0.000  0.000
       0.000  0.000  0.000  0.000  0.000  0.000  0.000
       0.000  0.000  0.000  0.000  0.000  0.000  0.000
       0.000  0.000  0.000  0.000  0.000  0.000  0.000
       0.000  0.000  0.000  0.000  0.000  0.000  0.000
       0.000  0.000  0.000  0.000  0.000  0.000  0.000
       0.000  0.000  0.000  0.000  0.000  0.000  0.000
     --------------------- ATOM   56 ----------------------
     Tr[ns] (up, down, total) =   2.00000  0.00000  2.00000
     Atomic magnetic moment =   2.00000
     SPIN  1
     eigenvalues:
       0.286  0.286  0.286  0.286  0.286  0.286  0.286
     eigenvectors (columns):
       1.000  0.000  0.000  0.000  0.000  0.000  0.000
       0.000  1.000  0.000  0.000  0.000  0.000  0.000
       0.000  0.000  1.000  0.000  0.000  0.000  0.000
       0.000  0.000  0.000  1.000  0.000  0.000  0.000
       0.000  0.000  0.000  0.000  1.000  0.000  0.000
       0.000  0.000  0.000  0.000  0.000  1.000  0.000
       0.000  0.000  0.000  0.000  0.000  0.000  1.000
     occupation matrix ns (before diag.):
       0.286  0.000  0.000  0.000  0.000  0.000  0.000
       0.000  0.286  0.000  0.000  0.000  0.000  0.000
       0.000  0.000  0.286  0.000  0.000  0.000  0.000
       0.000  0.000  0.000  0.286  0.000  0.000  0.000
       0.000  0.000  0.000  0.000  0.286  0.000  0.000
       0.000  0.000  0.000  0.000  0.000  0.286  0.000
       0.000  0.000  0.000  0.000  0.000  0.000  0.286
     SPIN  2
     eigenvalues:
       0.000  0.000  0.000  0.000  0.000  0.000  0.000
     eigenvectors (columns):
       1.000  0.000  0.000  0.000  0.000  0.000  0.000
       0.000  1.000  0.000  0.000  0.000  0.000  0.000
       0.000  0.000  1.000  0.000  0.000  0.000  0.000
       0.000  0.000  0.000  1.000  0.000  0.000  0.000
       0.000  0.000  0.000  0.000  1.000  0.000  0.000
       0.000  0.000  0.000  0.000  0.000  1.000  0.000
       0.000  0.000  0.000  0.000  0.000  0.000  1.000
     occupation matrix ns (before diag.):
       0.000  0.000  0.000  0.000  0.000  0.000  0.000
       0.000  0.000  0.000  0.000  0.000  0.000  0.000
       0.000  0.000  0.000  0.000  0.000  0.000  0.000
       0.000  0.000  0.000  0.000  0.000  0.000  0.000
       0.000  0.000  0.000  0.000  0.000  0.000  0.000
       0.000  0.000  0.000  0.000  0.000  0.000  0.000
       0.000  0.000  0.000  0.000  0.000  0.000  0.000
     --------------------- ATOM   57 ----------------------
     Tr[ns] (up, down, total) =   2.00000  0.00000  2.00000
     Atomic magnetic moment =   2.00000
     SPIN  1
     eigenvalues:
       0.286  0.286  0.286  0.286  0.286  0.286  0.286
     eigenvectors (columns):
       1.000  0.000  0.000  0.000  0.000  0.000  0.000
       0.000  1.000  0.000  0.000  0.000  0.000  0.000
       0.000  0.000  1.000  0.000  0.000  0.000  0.000
       0.000  0.000  0.000  1.000  0.000  0.000  0.000
       0.000  0.000  0.000  0.000  1.000  0.000  0.000
       0.000  0.000  0.000  0.000  0.000  1.000  0.000
       0.000  0.000  0.000  0.000  0.000  0.000  1.000
     occupation matrix ns (before diag.):
       0.286  0.000  0.000  0.000  0.000  0.000  0.000
       0.000  0.286  0.000  0.000  0.000  0.000  0.000
       0.000  0.000  0.286  0.000  0.000  0.000  0.000
       0.000  0.000  0.000  0.286  0.000  0.000  0.000
       0.000  0.000  0.000  0.000  0.286  0.000  0.000
       0.000  0.000  0.000  0.000  0.000  0.286  0.000
       0.000  0.000  0.000  0.000  0.000  0.000  0.286
     SPIN  2
     eigenvalues:
       0.000  0.000  0.000  0.000  0.000  0.000  0.000
     eigenvectors (columns):
       1.000  0.000  0.000  0.000  0.000  0.000  0.000
       0.000  1.000  0.000  0.000  0.000  0.000  0.000
       0.000  0.000  1.000  0.000  0.000  0.000  0.000
       0.000  0.000  0.000  1.000  0.000  0.000  0.000
       0.000  0.000  0.000  0.000  1.000  0.000  0.000
       0.000  0.000  0.000  0.000  0.000  1.000  0.000
       0.000  0.000  0.000  0.000  0.000  0.000  1.000
     occupation matrix ns (before diag.):
       0.000  0.000  0.000  0.000  0.000  0.000  0.000
       0.000  0.000  0.000  0.000  0.000  0.000  0.000
       0.000  0.000  0.000  0.000  0.000  0.000  0.000
       0.000  0.000  0.000  0.000  0.000  0.000  0.000
       0.000  0.000  0.000  0.000  0.000  0.000  0.000
       0.000  0.000  0.000  0.000  0.000  0.000  0.000
       0.000  0.000  0.000  0.000  0.000  0.000  0.000
     --------------------- ATOM   58 ----------------------
     Tr[ns] (up, down, total) =   2.00000  0.00000  2.00000
     Atomic magnetic moment =   2.00000
     SPIN  1
     eigenvalues:
       0.286  0.286  0.286  0.286  0.286  0.286  0.286
     eigenvectors (columns):
       1.000  0.000  0.000  0.000  0.000  0.000  0.000
       0.000  1.000  0.000  0.000  0.000  0.000  0.000
       0.000  0.000  1.000  0.000  0.000  0.000  0.000
       0.000  0.000  0.000  1.000  0.000  0.000  0.000
       0.000  0.000  0.000  0.000  1.000  0.000  0.000
       0.000  0.000  0.000  0.000  0.000  1.000  0.000
       0.000  0.000  0.000  0.000  0.000  0.000  1.000
     occupation matrix ns (before diag.):
       0.286  0.000  0.000  0.000  0.000  0.000  0.000
       0.000  0.286  0.000  0.000  0.000  0.000  0.000
       0.000  0.000  0.286  0.000  0.000  0.000  0.000
       0.000  0.000  0.000  0.286  0.000  0.000  0.000
       0.000  0.000  0.000  0.000  0.286  0.000  0.000
       0.000  0.000  0.000  0.000  0.000  0.286  0.000
       0.000  0.000  0.000  0.000  0.000  0.000  0.286
     SPIN  2
     eigenvalues:
       0.000  0.000  0.000  0.000  0.000  0.000  0.000
     eigenvectors (columns):
       1.000  0.000  0.000  0.000  0.000  0.000  0.000
       0.000  1.000  0.000  0.000  0.000  0.000  0.000
       0.000  0.000  1.000  0.000  0.000  0.000  0.000
       0.000  0.000  0.000  1.000  0.000  0.000  0.000
       0.000  0.000  0.000  0.000  1.000  0.000  0.000
       0.000  0.000  0.000  0.000  0.000  1.000  0.000
       0.000  0.000  0.000  0.000  0.000  0.000  1.000
     occupation matrix ns (before diag.):
       0.000  0.000  0.000  0.000  0.000  0.000  0.000
       0.000  0.000  0.000  0.000  0.000  0.000  0.000
       0.000  0.000  0.000  0.000  0.000  0.000  0.000
       0.000  0.000  0.000  0.000  0.000  0.000  0.000
       0.000  0.000  0.000  0.000  0.000  0.000  0.000
       0.000  0.000  0.000  0.000  0.000  0.000  0.000
       0.000  0.000  0.000  0.000  0.000  0.000  0.000
     --------------------- ATOM   59 ----------------------
     Tr[ns] (up, down, total) =   2.00000  0.00000  2.00000
     Atomic magnetic moment =   2.00000
     SPIN  1
     eigenvalues:
       0.286  0.286  0.286  0.286  0.286  0.286  0.286
     eigenvectors (columns):
       1.000  0.000  0.000  0.000  0.000  0.000  0.000
       0.000  1.000  0.000  0.000  0.000  0.000  0.000
       0.000  0.000  1.000  0.000  0.000  0.000  0.000
       0.000  0.000  0.000  1.000  0.000  0.000  0.000
       0.000  0.000  0.000  0.000  1.000  0.000  0.000
       0.000  0.000  0.000  0.000  0.000  1.000  0.000
       0.000  0.000  0.000  0.000  0.000  0.000  1.000
     occupation matrix ns (before diag.):
       0.286  0.000  0.000  0.000  0.000  0.000  0.000
       0.000  0.286  0.000  0.000  0.000  0.000  0.000
       0.000  0.000  0.286  0.000  0.000  0.000  0.000
       0.000  0.000  0.000  0.286  0.000  0.000  0.000
       0.000  0.000  0.000  0.000  0.286  0.000  0.000
       0.000  0.000  0.000  0.000  0.000  0.286  0.000
       0.000  0.000  0.000  0.000  0.000  0.000  0.286
     SPIN  2
     eigenvalues:
       0.000  0.000  0.000  0.000  0.000  0.000  0.000
     eigenvectors (columns):
       1.000  0.000  0.000  0.000  0.000  0.000  0.000
       0.000  1.000  0.000  0.000  0.000  0.000  0.000
       0.000  0.000  1.000  0.000  0.000  0.000  0.000
       0.000  0.000  0.000  1.000  0.000  0.000  0.000
       0.000  0.000  0.000  0.000  1.000  0.000  0.000
       0.000  0.000  0.000  0.000  0.000  1.000  0.000
       0.000  0.000  0.000  0.000  0.000  0.000  1.000
     occupation matrix ns (before diag.):
       0.000  0.000  0.000  0.000  0.000  0.000  0.000
       0.000  0.000  0.000  0.000  0.000  0.000  0.000
       0.000  0.000  0.000  0.000  0.000  0.000  0.000
       0.000  0.000  0.000  0.000  0.000  0.000  0.000
       0.000  0.000  0.000  0.000  0.000  0.000  0.000
       0.000  0.000  0.000  0.000  0.000  0.000  0.000
       0.000  0.000  0.000  0.000  0.000  0.000  0.000
     --------------------- ATOM   60 ----------------------
     Tr[ns] (up, down, total) =   2.00000  0.00000  2.00000
     Atomic magnetic moment =   2.00000
     SPIN  1
     eigenvalues:
       0.286  0.286  0.286  0.286  0.286  0.286  0.286
     eigenvectors (columns):
       1.000  0.000  0.000  0.000  0.000  0.000  0.000
       0.000  1.000  0.000  0.000  0.000  0.000  0.000
       0.000  0.000  1.000  0.000  0.000  0.000  0.000
       0.000  0.000  0.000  1.000  0.000  0.000  0.000
       0.000  0.000  0.000  0.000  1.000  0.000  0.000
       0.000  0.000  0.000  0.000  0.000  1.000  0.000
       0.000  0.000  0.000  0.000  0.000  0.000  1.000
     occupation matrix ns (before diag.):
       0.286  0.000  0.000  0.000  0.000  0.000  0.000
       0.000  0.286  0.000  0.000  0.000  0.000  0.000
       0.000  0.000  0.286  0.000  0.000  0.000  0.000
       0.000  0.000  0.000  0.286  0.000  0.000  0.000
       0.000  0.000  0.000  0.000  0.286  0.000  0.000
       0.000  0.000  0.000  0.000  0.000  0.286  0.000
       0.000  0.000  0.000  0.000  0.000  0.000  0.286
     SPIN  2
     eigenvalues:
       0.000  0.000  0.000  0.000  0.000  0.000  0.000
     eigenvectors (columns):
       1.000  0.000  0.000  0.000  0.000  0.000  0.000
       0.000  1.000  0.000  0.000  0.000  0.000  0.000
       0.000  0.000  1.000  0.000  0.000  0.000  0.000
       0.000  0.000  0.000  1.000  0.000  0.000  0.000
       0.000  0.000  0.000  0.000  1.000  0.000  0.000
       0.000  0.000  0.000  0.000  0.000  1.000  0.000
       0.000  0.000  0.000  0.000  0.000  0.000  1.000
     occupation matrix ns (before diag.):
       0.000  0.000  0.000  0.000  0.000  0.000  0.000
       0.000  0.000  0.000  0.000  0.000  0.000  0.000
       0.000  0.000  0.000  0.000  0.000  0.000  0.000
       0.000  0.000  0.000  0.000  0.000  0.000  0.000
       0.000  0.000  0.000  0.000  0.000  0.000  0.000
       0.000  0.000  0.000  0.000  0.000  0.000  0.000
       0.000  0.000  0.000  0.000  0.000  0.000  0.000
     --------------------- ATOM   61 ----------------------
     Tr[ns] (up, down, total) =   2.00000  0.00000  2.00000
     Atomic magnetic moment =   2.00000
     SPIN  1
     eigenvalues:
       0.286  0.286  0.286  0.286  0.286  0.286  0.286
     eigenvectors (columns):
       1.000  0.000  0.000  0.000  0.000  0.000  0.000
       0.000  1.000  0.000  0.000  0.000  0.000  0.000
       0.000  0.000  1.000  0.000  0.000  0.000  0.000
       0.000  0.000  0.000  1.000  0.000  0.000  0.000
       0.000  0.000  0.000  0.000  1.000  0.000  0.000
       0.000  0.000  0.000  0.000  0.000  1.000  0.000
       0.000  0.000  0.000  0.000  0.000  0.000  1.000
     occupation matrix ns (before diag.):
       0.286  0.000  0.000  0.000  0.000  0.000  0.000
       0.000  0.286  0.000  0.000  0.000  0.000  0.000
       0.000  0.000  0.286  0.000  0.000  0.000  0.000
       0.000  0.000  0.000  0.286  0.000  0.000  0.000
       0.000  0.000  0.000  0.000  0.286  0.000  0.000
       0.000  0.000  0.000  0.000  0.000  0.286  0.000
       0.000  0.000  0.000  0.000  0.000  0.000  0.286
     SPIN  2
     eigenvalues:
       0.000  0.000  0.000  0.000  0.000  0.000  0.000
     eigenvectors (columns):
       1.000  0.000  0.000  0.000  0.000  0.000  0.000
       0.000  1.000  0.000  0.000  0.000  0.000  0.000
       0.000  0.000  1.000  0.000  0.000  0.000  0.000
       0.000  0.000  0.000  1.000  0.000  0.000  0.000
       0.000  0.000  0.000  0.000  1.000  0.000  0.000
       0.000  0.000  0.000  0.000  0.000  1.000  0.000
       0.000  0.000  0.000  0.000  0.000  0.000  1.000
     occupation matrix ns (before diag.):
       0.000  0.000  0.000  0.000  0.000  0.000  0.000
       0.000  0.000  0.000  0.000  0.000  0.000  0.000
       0.000  0.000  0.000  0.000  0.000  0.000  0.000
       0.000  0.000  0.000  0.000  0.000  0.000  0.000
       0.000  0.000  0.000  0.000  0.000  0.000  0.000
[...]
     atom   29 type  1   force =    -0.00003172    0.00004351   -0.00137739
     atom   30 type  1   force =    -0.00015942   -0.00009959   -0.00144892
     atom   31 type  1   force =    -0.00001005    0.00000694   -0.00151115
     atom   32 type  1   force =     0.00005759   -0.00003902   -0.00144387
     atom   33 type  1   force =     0.00000445   -0.00009519   -0.00147066
     atom   34 type  1   force =     0.00011504    0.00010307   -0.00150799
     atom   35 type  1   force =     0.00008897    0.00009311   -0.00151142
     atom   36 type  1   force =     0.00001623    0.00002857   -0.00148797
     atom   37 type  2   force =    -0.00025973    0.00008671   -0.01156359
     atom   38 type  2   force =    -0.00216198   -0.00005426   -0.01531941
     atom   39 type  2   force =     0.00042649    0.00234165   -0.01487256
     atom   40 type  2   force =    -0.00013190    0.00015165   -0.01158827
     atom   41 type  2   force =    -0.00171434   -0.00198709   -0.01562945
     atom   42 type  2   force =    -0.00004304   -0.00017244   -0.01156251
     atom   43 type  2   force =     0.00145484    0.00208459   -0.01587217
     atom   44 type  2   force =    -0.00040375   -0.00026013   -0.01327467
     atom   45 type  2   force =    -0.00152545    0.00001005   -0.01187215
     atom   46 type  2   force =     0.00244826   -0.00042428   -0.01486151
     atom   47 type  2   force =    -0.00002060    0.00039747   -0.01146386
     atom   48 type  2   force =    -0.00144122   -0.00095321   -0.01105928
     atom   49 type  2   force =     0.00077925    0.00039534   -0.01222303
     atom   50 type  2   force =     0.00006333    0.00003552   -0.01133179
     atom   51 type  2   force =    -0.00010345   -0.00091151   -0.01224857
     atom   52 type  2   force =     0.00033759    0.00017999   -0.01204054
     atom   53 type  2   force =     0.00014416    0.00024672   -0.01150090
     atom   54 type  2   force =    -0.00022432   -0.00033354   -0.01240012
     atom   55 type  2   force =    -0.00017131   -0.00009820   -0.01181416
     atom   56 type  2   force =     0.00005877   -0.00021516   -0.01204110
     atom   57 type  2   force =    -0.00091289   -0.00050052   -0.01322977
     atom   58 type  2   force =    -0.00017498   -0.00026986   -0.01131263
     atom   59 type  2   force =    -0.00005988   -0.00014816   -0.01183574
     atom   60 type  2   force =    -0.00039108   -0.00008051   -0.01130209
     atom   61 type  2   force =    -0.00023292    0.00020821   -0.01126723
     atom   62 type  2   force =    -0.00033186   -0.00010203   -0.01134133
     atom   63 type  2   force =    -0.00015662    0.00003317   -0.01163548
     atom   64 type  2   force =     0.00004013    0.00039100   -0.01172498
     atom   65 type  2   force =     0.00037717   -0.00016674   -0.01166989
     atom   66 type  2   force =     0.00007043    0.00001468   -0.01121934
     atom   67 type  2   force =     0.00020556    0.00026369   -0.01197235
     atom   68 type  2   force =     0.00007243   -0.00029254   -0.01148251
     atom   69 type  2   force =    -0.00011339   -0.00007997   -0.01208818
     atom   70 type  2   force =    -0.00012099   -0.00025797   -0.01122741
     atom   71 type  2   force =    -0.00001686    0.00011284   -0.01157792
     atom   72 type  2   force =     0.00015350    0.00055714   -0.01200492
     atom   73 type  1   force =     0.00010689   -0.00086281    0.01441625
     atom   74 type  1   force =     0.00025503    0.00004573    0.01340271
     atom   75 type  1   force =    -0.00138238    0.00080605    0.01149217
     atom   76 type  1   force =    -0.00090690   -0.00091146    0.01346738
     atom   77 type  1   force =    -0.00002418    0.00122249    0.01354227
     atom   78 type  1   force =    -0.00126163   -0.00007397    0.01309568
     atom   79 type  1   force =    -0.00011983   -0.00041200    0.01343498
     atom   80 type  1   force =     0.00143795    0.00154913    0.01433088
     atom   81 type  1   force =    -0.00016700    0.00037139    0.01389668
     atom   82 type  1   force =    -0.00007306    0.00055935    0.01374075
     atom   83 type  1   force =     0.00166948   -0.00013178    0.01446268
     atom   84 type  1   force =    -0.00197707   -0.00124337    0.01538444
     atom   85 type  1   force =     0.00012516    0.00081106    0.01386699
     atom   86 type  1   force =     0.00033428   -0.00069934    0.01332299
     atom   87 type  1   force =    -0.00025492    0.00053304    0.01371633
     atom   88 type  1   force =    -0.00326825   -0.00179620    0.01600070
     atom   89 type  1   force =    -0.00006542   -0.00055777    0.01323594
     atom   90 type  1   force =    -0.00069672    0.00084929    0.01393719
     atom   91 type  1   force =    -0.00242112    0.00077856    0.01270878
     atom   92 type  1   force =     0.00001195   -0.00044114    0.01398141
     atom   93 type  1   force =     0.00028057   -0.00001098    0.01414635
     atom   94 type  1   force =    -0.00100747   -0.00000424    0.01379246
     atom   95 type  1   force =    -0.00021975    0.00020981    0.01352496
     atom   96 type  1   force =    -0.00031421    0.00021731    0.01346382
     atom   97 type  1   force =     0.00011656    0.00002342    0.01318769
     atom   98 type  1   force =    -0.00019808   -0.00049192    0.01345121
     atom   99 type  1   force =    -0.00068828   -0.00058402    0.01412791
     atom  100 type  1   force =    -0.00044100    0.00005419    0.01314813
     atom  101 type  1   force =    -0.00014518    0.00049912    0.01333757
     atom  102 type  1   force =    -0.00018556   -0.00015634    0.01376541
     atom  103 type  1   force =    -0.00035389    0.00016247    0.01343530
     atom  104 type  1   force =     0.00025337   -0.00024650    0.01376145
     atom  105 type  1   force =     0.00017563    0.00030265    0.01412229
     atom  106 type  1   force =    -0.00016498   -0.00040030    0.01346243
     atom  107 type  1   force =     0.00011831   -0.00012656    0.01357920
     atom  108 type  1   force =     0.00020882    0.00009772    0.01347108
     atom  109 type  1   force =    -0.00039807   -0.00084448   -0.00057909
     atom  110 type  1   force =    -0.00009578   -0.00000157   -0.00109189
     atom  111 type  1   force =    -0.00057735    0.00044914   -0.00190692
     atom  112 type  1   force =    -0.00054911   -0.00045090   -0.00140842
     atom  113 type  1   force =     0.00003832   -0.00167487   -0.00001834
     atom  114 type  1   force =     0.00092028   -0.00021355   -0.00219213
     atom  115 type  1   force =    -0.00076365   -0.00015180   -0.00118260
     atom  116 type  1   force =     0.00035509   -0.00068859   -0.00120319
     atom  117 type  1   force =    -0.00018282   -0.00019177   -0.00150584
     atom  118 type  1   force =     0.00041067   -0.00021285   -0.00169266
     atom  119 type  1   force =     0.00071966   -0.00050258   -0.00123545
     atom  120 type  1   force =     0.00113916    0.00013978   -0.00128980
     atom  121 type  1   force =     0.00029829    0.00037830   -0.00109169
     atom  122 type  1   force =    -0.00014375    0.00002988   -0.00203178
     atom  123 type  1   force =     0.00037382   -0.00084077   -0.00204350
     atom  124 type  1   force =    -0.00042322   -0.00006886   -0.00117114
     atom  125 type  1   force =    -0.00067440   -0.00002113   -0.00115288
     atom  126 type  1   force =    -0.00006738    0.00035037    0.00001082
     atom  127 type  1   force =     0.00095065   -0.00138076   -0.00310095
     atom  128 type  1   force =     0.00045576   -0.00080185   -0.00173555
     atom  129 type  1   force =    -0.00030099    0.00002582   -0.00172889
     atom  130 type  1   force =    -0.00050665    0.00050775   -0.00083852
     atom  131 type  1   force =     0.00018133   -0.00019558   -0.00052079
     atom  132 type  1   force =     0.00029878   -0.00008081   -0.00142395
     atom  133 type  1   force =     0.00019199   -0.00034855   -0.00113116
     atom  134 type  1   force =    -0.00146143    0.00009658   -0.00091713
     atom  135 type  1   force =     0.00035301    0.00034969   -0.00109573
     atom  136 type  1   force =     0.00053232    0.00022311   -0.00133409
     atom  137 type  1   force =    -0.00002370   -0.00088824   -0.00209871
     atom  138 type  1   force =     0.00017893   -0.00090090   -0.00034610
     atom  139 type  1   force =     0.00012953   -0.00019977   -0.00125630
     atom  140 type  1   force =    -0.00025882    0.00102989   -0.00151627
     atom  141 type  1   force =    -0.00019385    0.00023528   -0.00135422
     atom  142 type  1   force =    -0.00099960   -0.00073489    0.00011106
     atom  143 type  1   force =     0.00006374   -0.00062221   -0.00205844
     atom  144 type  1   force =     0.00061695    0.00103203   -0.00118761
     atom  145 type  2   force =    -0.00123887    0.00107773   -0.00525165
     atom  146 type  2   force =    -0.00027367    0.00027041    0.00021153
     atom  147 type  2   force =    -0.00065967   -0.00062862   -0.00044111
     atom  148 type  2   force =    -0.00007360    0.00007071    0.00009751
     atom  149 type  2   force =     0.00002722   -0.00039573   -0.00023127
     atom  150 type  2   force =     0.00092695   -0.00143812   -0.00392249
     atom  151 type  2   force =    -0.00045667    0.00003669    0.00034489
     atom  152 type  2   force =    -0.00014386   -0.00017043   -0.00016567
     atom  153 type  2   force =     0.00083420    0.00131217   -0.00263735
     atom  154 type  2   force =     0.00110777   -0.00022145   -0.00109894
     atom  155 type  2   force =     0.00001519   -0.00046879   -0.00047144
     atom  156 type  2   force =     0.00006833   -0.00058061    0.00000028
     atom  157 type  2   force =    -0.00047923   -0.00035807   -0.00657650
     atom  158 type  2   force =     0.00070543   -0.00061487    0.00035228
     atom  159 type  2   force =     0.00007782    0.00006467    0.00006409
     atom  160 type  2   force =    -0.00030923   -0.00098287   -0.00034085
     atom  161 type  2   force =    -0.00070946   -0.00037392   -0.00335015
     atom  162 type  2   force =    -0.00082939   -0.00033525   -0.00045233
     atom  163 type  2   force =    -0.00011893    0.00029742    0.00006253
     atom  164 type  2   force =    -0.00007007    0.00012019   -0.00056421
     atom  165 type  2   force =     0.00050831    0.00035026    0.00085803
     atom  166 type  2   force =    -0.00023623   -0.00117503   -0.00368860
     atom  167 type  2   force =    -0.00052861   -0.00040109   -0.00110427
     atom  168 type  2   force =     0.00000868   -0.00022871    0.00007492
     atom  169 type  2   force =    -0.00011654   -0.00069619    0.00000563
     atom  170 type  2   force =     0.00014068    0.00222599   -0.00372328
     atom  171 type  2   force =    -0.00056997   -0.00005887    0.00058523
     atom  172 type  2   force =    -0.00055447    0.00020728    0.00029232
     atom  173 type  2   force =    -0.00030618    0.00068822    0.00056616
     atom  174 type  2   force =     0.00296081   -0.00165889   -0.00363403
     atom  175 type  2   force =    -0.00006941    0.00075200    0.00013425
     atom  176 type  2   force =    -0.00086417    0.00037857    0.00056205
     atom  177 type  2   force =     0.00101741   -0.00033567   -0.00069841
     atom  178 type  2   force =     0.00060368    0.00056443   -0.00074127
     atom  179 type  2   force =     0.00125457    0.00010909   -0.00065837
     atom  180 type  2   force =    -0.00031071    0.00045889   -0.00087135
     atom  181 type  1   force =    -0.00055127    0.00276651    0.00422150
     atom  182 type  1   force =     0.00022101    0.00001513    0.00095331
     atom  183 type  1   force =     0.00089317   -0.00050101    0.00065783
     atom  184 type  1   force =    -0.00009372   -0.00036052    0.00051582
     atom  185 type  1   force =     0.00026133    0.00079604    0.00503087
     atom  186 type  1   force =    -0.00000193   -0.00005217    0.00076845
     atom  187 type  1   force =     0.00038206    0.00135410    0.00165265
     atom  188 type  1   force =     0.00079326    0.00038745    0.00035931
     atom  189 type  1   force =    -0.00031411   -0.00041258    0.00190047
     atom  190 type  1   force =    -0.00012444    0.00063265    0.00343066
     atom  191 type  1   force =     0.00012687   -0.00017895    0.00024514
     atom  192 type  1   force =    -0.00018582    0.00019472    0.00113899
     atom  193 type  1   force =     0.00085234   -0.00112020    0.00612726
     atom  194 type  1   force =    -0.00040849    0.00013147    0.00108569
     atom  195 type  1   force =     0.00094986    0.00045515    0.00057810
     atom  196 type  1   force =     0.00021533   -0.00021416    0.00072038
     atom  197 type  1   force =     0.00004139   -0.00095004    0.00243953
     atom  198 type  1   force =    -0.00072906    0.00089846    0.00339167
     atom  199 type  1   force =     0.00063686    0.00012954    0.00080194
     atom  200 type  1   force =     0.00015865    0.00000313    0.00065190
     atom  201 type  1   force =    -0.00030252    0.00077207    0.00235538
     atom  202 type  1   force =     0.00038014    0.00030420    0.00321350
     atom  203 type  1   force =     0.00153208    0.00092338    0.00143545
     atom  204 type  1   force =     0.00019176    0.00015145    0.00026024
     atom  205 type  1   force =    -0.00076095    0.00012564    0.01109169
     atom  206 type  1   force =    -0.00027068    0.00039636    0.00065519
     atom  207 type  1   force =     0.00045926    0.00087469    0.00069487
     atom  208 type  1   force =    -0.00041477    0.00002302    0.00060373
     atom  209 type  1   force =    -0.00072639    0.00034990    0.00260031
     atom  210 type  1   force =    -0.00044327   -0.00002146    0.00142861
     atom  211 type  1   force =    -0.00055494    0.00005394    0.00092799
     atom  212 type  1   force =    -0.00045686   -0.00044952    0.00046514
     atom  213 type  1   force =    -0.00046273   -0.00015082    0.00078560
     atom  214 type  1   force =    -0.00132380   -0.00075099    0.00193801
     atom  215 type  1   force =     0.00082273   -0.00014442    0.00348146
     atom  216 type  1   force =    -0.00018972   -0.00052854    0.00105640
     atom  217 type  3   force =     0.01491910    0.00086352   -0.00566596
     atom  218 type  4   force =    -0.01250920   -0.00036256    0.00008699
     atom  219 type  5   force =     0.00554403    0.00092589   -0.02069608
     atom  220 type  4   force =    -0.00062789   -0.00022644   -0.00399756
     atom  221 type  5   force =    -0.00151563   -0.00113092    0.00191089
     atom  222 type  5   force =     0.01467962    0.00825186   -0.00381150
     atom  223 type  1   force =    -0.01783608   -0.00844712    0.00175371
     atom  224 type  4   force =     0.00036739   -0.00805366    0.00418870
     atom  225 type  5   force =     0.00072751    0.00083968   -0.00728397
     atom  226 type  4   force =     0.00140391   -0.00973662    0.01437129
     atom  227 type  4   force =     0.00453992    0.00174264    0.00390482
     atom  228 type  5   force =     0.00808115   -0.00220331   -0.00048071
     atom  229 type  3   force =     0.00191227   -0.00059722    0.00737729
     atom  230 type  3   force =    -0.00421739    0.00426364   -0.00346946
     atom  231 type  3   force =     0.01086012    0.00130319   -0.00359898
     atom  232 type  3   force =    -0.00879812    0.00777618   -0.01034667
     atom  233 type  4   force =     0.00199565   -0.01563336    0.02801598
     atom  234 type  5   force =    -0.00061759    0.04622688   -0.03963348
     atom  235 type  4   force =     0.00421732    0.02197121    0.02100099
     atom  236 type  5   force =    -0.00373494   -0.01093526   -0.00897519
     atom  237 type  4   force =    -0.02213152    0.02307703    0.02871881
     atom  238 type  5   force =     0.02085987   -0.01468767   -0.01923516
     atom  239 type  6   force =     0.00913196   -0.03216242   -0.00035353
     atom  240 type  5   force =    -0.02155168    0.01798477   -0.00524649
     atom  241 type  4   force =     0.01600337   -0.01178105    0.00841352
     atom  242 type  5   force =     0.00676693    0.01829789   -0.00070180
     atom  243 type  4   force =    -0.01494426   -0.02050679    0.00019826
     atom  244 type  5   force =    -0.00242177   -0.02524889    0.04289999
     atom  245 type  4   force =     0.00169850    0.01148915   -0.01959053

     Total force =     0.135751     Total SCF correction =     0.001673


     Computing stress (Cartesian axis) and pressure


     negative rho (up, down):  3.928E-02 9.845E-02
          total   stress  (Ry/bohr**3)                   (kbar)     P=      -18.56
  -0.00017226  -0.00000094   0.00000109          -25.34       -0.14        0.16
  -0.00000094  -0.00017002  -0.00000078           -0.14      -25.01       -0.12
   0.00000109  -0.00000078  -0.00003627            0.16       -0.12       -5.34


     Writing all to output data dir ./out/aiida.save/
 
     init_run     :     44.70s CPU     46.10s WALL (       1 calls)
     electrons    :   8337.55s CPU   8493.60s WALL (       1 calls)
     forces       :     85.38s CPU     86.33s WALL (       1 calls)
     stress       :    503.55s CPU    504.78s WALL (       1 calls)

     Called by init_run:
     wfcinit      :     38.23s CPU     39.24s WALL (       1 calls)
     potinit      :      2.05s CPU      2.13s WALL (       1 calls)
     hinit0       :      1.09s CPU      1.13s WALL (       1 calls)

     Called by electrons:
     c_bands      :   6987.88s CPU   7087.57s WALL (      91 calls)
     sum_band     :   1102.58s CPU   1138.04s WALL (      91 calls)
     v_of_rho     :     39.67s CPU     40.39s WALL (      92 calls)
     newd         :     56.87s CPU     75.49s WALL (      92 calls)
     PAW_pot      :    118.75s CPU    119.82s WALL (      92 calls)
     mix_rho      :     24.68s CPU     24.83s WALL (      91 calls)

     Called by c_bands:
     init_us_2    :     11.55s CPU     11.62s WALL (     376 calls)
     init_us_2:cp :     11.55s CPU     11.62s WALL (     376 calls)
     regterg      :   6925.05s CPU   7009.66s WALL (     184 calls)

     Called by *egterg:
     rdiaghg      :    462.69s CPU    466.46s WALL (     595 calls)
     h_psi        :   4257.18s CPU   4296.92s WALL (     597 calls)
     s_psi        :    354.20s CPU    374.32s WALL (     603 calls)
     g_psi        :      3.76s CPU      3.76s WALL (     411 calls)

     Called by h_psi:
     h_psi:calbec :    467.77s CPU    468.42s WALL (     597 calls)
     vloc_psi     :   2807.01s CPU   2821.21s WALL (     597 calls)
     add_vuspsi   :    351.33s CPU    373.37s WALL (     597 calls)
     vhpsi        :    621.42s CPU    624.25s WALL (     597 calls)

     General routines
     calbec       :   1052.46s CPU   1054.15s WALL (   25116 calls)
     fft          :     56.17s CPU     57.06s WALL (    1959 calls)
     ffts         :      3.18s CPU      3.36s WALL (     366 calls)
     fftw         :   3000.42s CPU   3016.20s WALL ( 1183312 calls)
     interpolate  :      6.75s CPU      6.88s WALL (     184 calls)
     davcio       :      0.00s CPU      0.02s WALL (       2 calls)
 
     Parallel routines
     fft_scatt_xy :     89.40s CPU     89.83s WALL ( 1185637 calls)
     fft_scatt_yz :   2603.21s CPU   2618.34s WALL ( 1185637 calls)

     Hubbard U routines
     new_ns       :     42.31s CPU     43.14s WALL (      91 calls)
     vhpsi        :    621.42s CPU    624.25s WALL (     597 calls)
     force_hub    :     71.67s CPU     72.08s WALL (       1 calls)
     stres_hub    :    184.82s CPU    185.56s WALL (       1 calls)
 
     PWSCF        :      2h30m CPU      2h33m WALL

 
   This run was terminated on:  18: 6:30  18Dec2024            

=------------------------------------------------------------------------------=
   JOB DONE.
=------------------------------------------------------------------------------=
