
     Program PWSCF v.7.0 starts on 18Dec2024 at 10:29:51 

     This program is part of the open-source Quantum ESPRESSO suite
     for quantum simulation of materials; please cite
         "P. Giannozzi et al., J. Phys.:Condens. Matter 21 395502 (2009);
         "P. Giannozzi et al., J. Phys.:Condens. Matter 29 465901 (2017);
         "P. Giannozzi et al., J. Chem. Phys. 152 154105 (2020);
          URL http://www.quantum-espresso.org", 
     in publications or presentations arising from this work. More details at
     http://www.quantum-espresso.org/quote

     Parallel version (MPI & OpenMP), running on     288 processor cores
     Number of MPI processes:               288
     Threads/MPI process:                     1

     MPI processes distributed on     8 nodes
     R & G space division:  proc/nbgrp/npool/nimage =     288
     59269 MiB available memory on the printing compute node when the environment starts
 
     Reading input from pwscf.in

     Current dimensions of program PWSCF are:
     Max number of different atomic species (ntypx) = 10
     Max number of k-points (npk) =  40000
     Max angular momentum in pseudopotentials (lmaxx) =  4
     file O.pbe-n-kjpaw_psl.0.1.UPF: wavefunction(s)  2P renormalized
     file Ce.paw.z_12.atompaw.wentzcovitch.v1.2.upf: wavefunction(s)  6S 0P 5D 0D 4F 0F renormalized
     file C.pbe-n-kjpaw_psl.1.0.0.UPF: wavefunction(s)  2S 2P renormalized
     file Fe.pbe-spn-kjpaw_psl.0.2.1.UPF: wavefunction(s)  3D renormalized

     gamma-point specific algorithms are used

     Subspace diagonalization in iterative solution of the eigenvalue problem:
     one sub-group per band group will be used
     scalapack distributed-memory algorithm (size of sub-group: 16* 16 procs)


     Program PWSCF v.7.0 starts on 18Dec2024 at 14:19: 1 

     This program is part of the open-source Quantum ESPRESSO suite
     for quantum simulation of materials; please cite
         "P. Giannozzi et al., J. Phys.:Condens. Matter 21 395502 (2009);
         "P. Giannozzi et al., J. Phys.:Condens. Matter 29 465901 (2017);
         "P. Giannozzi et al., J. Chem. Phys. 152 154105 (2020);
          URL http://www.quantum-espresso.org", 
     in publications or presentations arising from this work. More details at
     http://www.quantum-espresso.org/quote

     Parallel version (MPI & OpenMP), running on     288 processor cores
     Number of MPI processes:               288
     Threads/MPI process:                     1

     MPI processes distributed on     8 nodes
     R & G space division:  proc/nbgrp/npool/nimage =     288
     59284 MiB available memory on the printing compute node when the environment starts
 
     Reading input from pwscf.in

     Current dimensions of program PWSCF are:
     Max number of different atomic species (ntypx) = 10
     Max number of k-points (npk) =  40000
     Max angular momentum in pseudopotentials (lmaxx) =  4
     file O.pbe-n-kjpaw_psl.0.1.UPF: wavefunction(s)  2P renormalized
     file Ce.paw.z_12.atompaw.wentzcovitch.v1.2.upf: wavefunction(s)  6S 0P 5D 0D 4F 0F renormalized
     file C.pbe-n-kjpaw_psl.1.0.0.UPF: wavefunction(s)  2S 2P renormalized
     file Fe.pbe-spn-kjpaw_psl.0.2.1.UPF: wavefunction(s)  3D renormalized

     gamma-point specific algorithms are used

     Subspace diagonalization in iterative solution of the eigenvalue problem:
     one sub-group per band group will be used
     scalapack distributed-memory algorithm (size of sub-group: 16* 16 procs)

 
     Parallelization info
     --------------------
     sticks:   dense  smooth     PW     G-vecs:    dense   smooth      PW
     Min         146      72     17                31642    11168    1386
     Max         148      74     20                31688    11218    1412
     Sum       42361   21205   5305              9119279  3224425  403087
 
     Using Pencil Decomposition
 


     bravais-lattice index     =            0
     lattice parameter (alat)  =      43.8349  a.u.
     unit-cell volume          =   94338.8593 (a.u.)^3
     number of atoms/cell      =          258
     number of atomic types    =            6
     number of electrons       =      1896.00
     number of Kohn-Sham states=         2500
     kinetic-energy cutoff     =      40.0000  Ry
     charge density cutoff     =     320.0000  Ry
     scf convergence threshold =      4.2E-08
     mixing beta               =       0.1000
     number of iterations used =            8  plain     mixing
     Exchange-correlation= SLA  PW   PBX  PBC
                           (   1   4   3   4   0   0   0)

     celldm(1)=  43.834893  celldm(2)=   0.000000  celldm(3)=   0.000000
     celldm(4)=   0.000000  celldm(5)=   0.000000  celldm(6)=   0.000000

     crystal axes: (cart. coord. in units of alat)
               a(1) = (   1.000000   0.000000   0.000000 )  
               a(2) = (  -0.500000   0.866025   0.000000 )  
               a(3) = (   0.000000   0.000000   1.293303 )  

     reciprocal axes: (cart. coord. in units 2 pi/alat)
               b(1) = (  1.000000  0.577350  0.000000 )  
               b(2) = (  0.000000  1.154701  0.000000 )  
               b(3) = (  0.000000  0.000000  0.773214 )  


     PseudoPot. # 1 for O  read from file:
     ./pseudo/O.pbe-n-kjpaw_psl.0.1.UPF
     MD5 check sum: 0234752ac141de4415c5fc33072bef88
     Pseudo is Projector augmented-wave + core cor, Zval =  6.0
     Generated using "atomic" code by A. Dal Corso  v.5.0.99 svn rev. 10869
     Shape of augmentation charge: BESSEL
     Using radial grid of 1095 points,  4 beta functions with: 
                l(1) =   0
                l(2) =   0
                l(3) =   1
                l(4) =   1
     Q(r) pseudized with 0 coefficients 


     PseudoPot. # 2 for Ce read from file:
     ./pseudo/Ce.paw.z_12.atompaw.wentzcovitch.v1.2.upf
     MD5 check sum: 2241420ff980c77e0c917a2dc8a7e08e
     Pseudo is Projector augmented-wave + core cor, Zval = 12.0
     Generated using ATOMPAW code
     Shape of augmentation charge: BESSEL
     Using radial grid of 1102 points,  8 beta functions with: 
                l(1) =   0
                l(2) =   0
                l(3) =   1
                l(4) =   1
                l(5) =   2
                l(6) =   2
                l(7) =   3
                l(8) =   3
     Q(r) pseudized with 0 coefficients 


     PseudoPot. # 3 for H  read from file:
     ./pseudo/H.pbe-rrkjus_psl.1.0.0.UPF
     MD5 check sum: f52b6d4d1c606e5624b1dc7b2218f220
     Pseudo is Ultrasoft, Zval =  1.0
     Generated using "atomic" code by A. Dal Corso  v.5.1
     Using radial grid of  929 points,  2 beta functions with: 
                l(1) =   0
                l(2) =   0
     Q(r) pseudized with 0 coefficients 


     PseudoPot. # 4 for N  read from file:
     ./pseudo/N.pbe-n-radius_5.UPF
     MD5 check sum: 16739722b17309cd8fe442a2ace49922
     Pseudo is Ultrasoft + core correction, Zval =  5.0
     Generated using "atomic" code by A. Dal Corso  v.5.1
     Using radial grid of 1085 points,  4 beta functions with: 
                l(1) =   0
                l(2) =   0
                l(3) =   1
                l(4) =   1
     Q(r) pseudized with 0 coefficients 


     PseudoPot. # 5 for C  read from file:
     ./pseudo/C.pbe-n-kjpaw_psl.1.0.0.UPF
     MD5 check sum: 5d2aebdfa2cae82b50a7e79e9516da0f
     Pseudo is Projector augmented-wave + core cor, Zval =  4.0
     Generated using "atomic" code by A. Dal Corso  v.5.1
     Shape of augmentation charge: PSQ
     Using radial grid of 1073 points,  4 beta functions with: 
                l(1) =   0
                l(2) =   0
                l(3) =   1
                l(4) =   1
     Q(r) pseudized with 0 coefficients 


     PseudoPot. # 6 for Fe read from file:
     ./pseudo/Fe.pbe-spn-kjpaw_psl.0.2.1.UPF
     MD5 check sum: e86618425769142926afa95317d90200
     Pseudo is Projector augmented-wave + core cor, Zval = 16.0
     Generated using "atomic" code by A. Dal Corso  v.5.0.99 svn rev. 10869
     Shape of augmentation charge: PSQ
     Using radial grid of 1191 points,  6 beta functions with: 
                l(1) =   0
                l(2) =   0
                l(3) =   1
                l(4) =   1
                l(5) =   2
                l(6) =   2
     Q(r) pseudized with 0 coefficients 


     atomic species   valence    mass     pseudopotential
        O              6.00    15.99940     O ( 1.00)
        Ce            12.00   140.11600     Ce( 1.00)
        H              1.00     1.00794     H ( 1.00)
        N              5.00    14.00670     N ( 1.00)
        C              4.00    12.01070     C ( 1.00)
        Fe            16.00    55.84500     Fe( 1.00)

     Starting magnetic structure 
     atomic species   magnetization
        O            0.100
        Ce           0.417
        H            0.000
        N            0.000
        C            0.000
        Fe           0.417


     Simplified LDA+U calculation (l_max = 3) with parameters (eV):
     atomic species    L          U    alpha       J0     beta
        Ce             3     5.0000   0.0000   0.0000   0.0000
        Fe             2     6.0000   0.0000   0.0000   0.0000



     No symmetry found



   Cartesian axes

     site n.     atom                  positions (alat units)
         1           O   tau(   1) = (   0.0833330   0.2405628   0.2721652  )
         2           O   tau(   2) = (   0.0833331   0.8179129   0.2721652  )
         3           O   tau(   3) = (   0.0833335   0.5292376   0.2721652  )
         4           O   tau(   4) = (   0.1666664   0.6735755   0.2721652  )
         5           O   tau(   5) = (   0.1666665   0.0962249   0.2721652  )
         6           O   tau(   6) = (   0.1666667   0.3849002   0.2721652  )
         7           O   tau(   7) = (   0.2499996   0.8179129   0.2721652  )
         8           O   tau(   8) = (   0.2500000   0.5292376   0.2721652  )
         9           O   tau(   9) = (   0.2500000   0.2405628   0.2721652  )
        10           O   tau(  10) = (   0.3333329   0.6735755   0.2721652  )
        11           O   tau(  11) = (   0.3333332   0.3849002   0.2721652  )
        12           O   tau(  12) = (   0.3333335   0.0962249   0.2721652  )
        13           O   tau(  13) = (   0.4166664   0.5292376   0.2721652  )
        14           O   tau(  14) = (   0.4166665   0.2405628   0.2721652  )
        15           O   tau(  15) = (   0.4166666   0.8179129   0.2721652  )
        16           O   tau(  16) = (  -0.0000000   0.0962249   0.2721652  )
        17           O   tau(  17) = (  -0.0000001   0.6735755   0.2721652  )
        18           O   tau(  18) = (  -0.0000003   0.3849002   0.2721652  )
        19           O   tau(  19) = (  -0.0833334   0.8179129   0.2721652  )
        20           O   tau(  20) = (  -0.0833335   0.2405628   0.2721652  )
        21           O   tau(  21) = (  -0.0833336   0.5292376   0.2721652  )
        22           O   tau(  22) = (  -0.1666668   0.3849002   0.2721652  )
        23           O   tau(  23) = (  -0.1666671   0.6735755   0.2721652  )
        24           O   tau(  24) = (  -0.2500001   0.5292376   0.2721652  )
        25           O   tau(  25) = (  -0.2500004   0.8179129   0.2721652  )
        26           O   tau(  26) = (  -0.3333336   0.6735755   0.2721652  )
        27           O   tau(  27) = (  -0.4166669   0.8179129   0.2721652  )
        28           O   tau(  28) = (   0.4999997   0.3849002   0.2721652  )
        29           O   tau(  29) = (   0.4999999   0.6735755   0.2721652  )
        30           O   tau(  30) = (   0.5000000   0.0962249   0.2721652  )
        31           O   tau(  31) = (   0.5833329   0.2405628   0.2721652  )
        32           O   tau(  32) = (   0.5833335   0.5292376   0.2721652  )
        33           O   tau(  33) = (   0.6666665   0.0962249   0.2721652  )
        34           O   tau(  34) = (   0.6666667   0.3849002   0.2721652  )
        35           O   tau(  35) = (   0.7500000   0.2405628   0.2721652  )
        36           O   tau(  36) = (   0.8333335   0.0962249   0.2721652  )
        37           Ce  tau(  37) = (   0.0000000   0.0000000   0.3061864  )
        38           Ce  tau(  38) = (   0.0000002   0.5773501   0.3061864  )
        39           Ce  tau(  39) = (   0.0833332   0.7216879   0.3061864  )
        40           Ce  tau(  40) = (   0.0833332   0.1443374   0.3061864  )
        41           Ce  tau(  41) = (   0.0833334   0.4330127   0.3061864  )
        42           Ce  tau(  42) = (   0.1666665   0.0000000   0.3061864  )
        43           Ce  tau(  43) = (   0.1666667   0.5773501   0.3061864  )
        44           Ce  tau(  44) = (   0.1666667   0.2886753   0.3061864  )
        45           Ce  tau(  45) = (   0.2499997   0.7216879   0.3061864  )
        46           Ce  tau(  46) = (   0.2499999   0.4330127   0.3061864  )
        47           Ce  tau(  47) = (   0.2500002   0.1443374   0.3061864  )
        48           Ce  tau(  48) = (   0.3333332   0.5773501   0.3061864  )
        49           Ce  tau(  49) = (   0.3333332   0.2886753   0.3061864  )
        50           Ce  tau(  50) = (   0.3333335   0.0000000   0.3061864  )
        51           Ce  tau(  51) = (   0.4166665   0.4330127   0.3061864  )
        52           Ce  tau(  52) = (   0.4166667   0.7216879   0.3061864  )
        53           Ce  tau(  53) = (   0.4166667   0.1443374   0.3061864  )
        54           Ce  tau(  54) = (  -0.0000003   0.2886753   0.3061864  )
        55           Ce  tau(  55) = (  -0.0833333   0.1443374   0.3061864  )
        56           Ce  tau(  56) = (  -0.0833333   0.7216879   0.3061864  )
        57           Ce  tau(  57) = (  -0.0833336   0.4330127   0.3061864  )
        58           Ce  tau(  58) = (  -0.1666668   0.2886753   0.3061864  )
        59           Ce  tau(  59) = (  -0.1666668   0.5773501   0.3061864  )
        60           Ce  tau(  60) = (  -0.2500001   0.4330127   0.3061864  )
        61           Ce  tau(  61) = (  -0.2500003   0.7216879   0.3061864  )
        62           Ce  tau(  62) = (  -0.3333333   0.5773501   0.3061864  )
        63           Ce  tau(  63) = (   0.4999997   0.2886753   0.3061864  )
        64           Ce  tau(  64) = (   0.5000000   0.0000000   0.3061864  )
        65           Ce  tau(  65) = (   0.5000002   0.5773501   0.3061864  )
        66           Ce  tau(  66) = (   0.5833332   0.7216879   0.3061864  )
        67           Ce  tau(  67) = (   0.5833332   0.1443374   0.3061864  )
        68           Ce  tau(  68) = (   0.5833334   0.4330127   0.3061864  )
        69           Ce  tau(  69) = (   0.6666665   0.0000000   0.3061864  )
        70           Ce  tau(  70) = (   0.6666667   0.2886753   0.3061864  )
        71           Ce  tau(  71) = (   0.7500002   0.1443374   0.3061864  )
        72           Ce  tau(  72) = (   0.8333335   0.0000000   0.3061864  )
        73           O   tau(  73) = (   0.0000002   0.4811252   0.3402076  )
        74           O   tau(  74) = (   0.0833332   0.0481125   0.3402076  )
        75           O   tau(  75) = (   0.0833334   0.6254625   0.3402076  )
        76           O   tau(  76) = (   0.0833334   0.3367877   0.3402076  )
        77           O   tau(  77) = (   0.1666664   0.7698004   0.3402076  )
        78           O   tau(  78) = (   0.1666667   0.4811252   0.3402076  )
        79           O   tau(  79) = (   0.1666670   0.1924499   0.3402076  )
        80           O   tau(  80) = (   0.2499999   0.6254625   0.3402076  )
        81           O   tau(  81) = (   0.2500000   0.3367877   0.3402076  )
        82           O   tau(  82) = (   0.2500002   0.0481125   0.3402076  )
        83           O   tau(  83) = (   0.3333332   0.4811252   0.3402076  )
        84           O   tau(  84) = (   0.3333334   0.7698004   0.3402076  )
        85           O   tau(  85) = (   0.3333335   0.1924499   0.3402076  )
        86           O   tau(  86) = (   0.4166664   0.3367877   0.3402076  )
        87           O   tau(  87) = (   0.4166668   0.0481125   0.3402076  )
        88           O   tau(  88) = (   0.4166670   0.6254625   0.3402076  )
        89           O   tau(  89) = (  -0.0000000   0.1924499   0.3402076  )
        90           O   tau(  90) = (  -0.0000001   0.7698004   0.3402076  )
        91           O   tau(  91) = (  -0.0833331   0.6254625   0.3402076  )
        92           O   tau(  92) = (  -0.0833336   0.3367877   0.3402076  )
        93           O   tau(  93) = (  -0.1666666   0.7698004   0.3402076  )
        94           O   tau(  94) = (  -0.1666668   0.4811252   0.3402076  )
        95           O   tau(  95) = (  -0.2500001   0.6254625   0.3402076  )
        96           O   tau(  96) = (  -0.3333336   0.7698004   0.3402076  )
        97           O   tau(  97) = (   0.4999999   0.7698004   0.3402076  )
        98           O   tau(  98) = (   0.5000000   0.1924499   0.3402076  )
        99           O   tau(  99) = (   0.5000002   0.4811252   0.3402076  )
       100           O   tau( 100) = (   0.5833332   0.0481125   0.3402076  )
       101           O   tau( 101) = (   0.5833335   0.6254625   0.3402076  )
       102           O   tau( 102) = (   0.5833335   0.3367877   0.3402076  )
       103           O   tau( 103) = (   0.6666667   0.4811252   0.3402076  )
       104           O   tau( 104) = (   0.6666670   0.1924499   0.3402076  )
       105           O   tau( 105) = (   0.7500000   0.3367877   0.3402076  )
       106           O   tau( 106) = (   0.7500003   0.0481125   0.3402076  )
       107           O   tau( 107) = (   0.8333335   0.1924499   0.3402076  )
       108           O   tau( 108) = (   0.9166668   0.0481125   0.3402076  )
       109           O   tau( 109) = (   0.0836038   0.7214951   0.4065039  )
       110           O   tau( 110) = (   0.3340212   0.2890146   0.4065946  )
       111           O   tau( 111) = (  -0.1665947   0.2886176   0.4064640  )
       112           O   tau( 112) = (  -0.4169666   0.7212916   0.4063709  )
       113           O   tau( 113) = (   0.1664556   0.5782558   0.4054360  )
       114           O   tau( 114) = (   0.4168290   0.1449282   0.4061660  )
       115           O   tau( 115) = (  -0.0835018   0.1444239   0.4060836  )
       116           O   tau( 116) = (  -0.3337828   0.5770563   0.4063323  )
       117           O   tau( 117) = (   0.0002291   0.2888666   0.4063395  )
       118           O   tau( 118) = (   0.2496271   0.7209300   0.4065941  )
       119           O   tau( 119) = (  -0.2499951   0.7215125   0.4063593  )
       120           O   tau( 120) = (   0.4989681   0.2888397   0.4065322  )
       121           O   tau( 121) = (   0.0834630   0.4321176   0.4060885  )
       122           O   tau( 122) = (   0.3335163   0.0002989   0.4066138  )
       123           O   tau( 123) = (   0.5838006   0.4331619   0.4057778  )
       124           O   tau( 124) = (   0.8331555  -0.0003089   0.4064095  )
       125           O   tau( 125) = (  -0.0002268  -0.0003145   0.4064159  )
       126           O   tau( 126) = (   0.2499526   0.4327615   0.4063639  )
       127           O   tau( 127) = (  -0.2504096   0.4327872   0.4064526  )
       128           O   tau( 128) = (   0.5004523   0.0001273   0.4065831  )
       129           O   tau( 129) = (   0.1666993   0.0001858   0.4064540  )
       130           O   tau( 130) = (   0.4163751   0.4327935   0.4062664  )
       131           O   tau( 131) = (  -0.0828843   0.4330843   0.4065258  )
       132           O   tau( 132) = (   0.6664770  -0.0003972   0.4065323  )
       133           O   tau( 133) = (   0.1673742   0.2889879   0.4064095  )
       134           O   tau( 134) = (   0.4167677   0.7212032   0.4063709  )
       135           O   tau( 135) = (  -0.0829287   0.7216006   0.4064536  )
       136           O   tau( 136) = (   0.6664325   0.2886955   0.4064036  )
       137           O   tau( 137) = (   0.2500149   0.1447005   0.4062495  )
       138           O   tau( 138) = (  -0.0005922   0.5775893   0.4059172  )
       139           O   tau( 139) = (   0.4998178   0.5774620   0.4061922  )
       140           O   tau( 140) = (   0.7500171   0.1443796   0.4062755  )
       141           O   tau( 141) = (   0.0835624   0.1449246   0.4063205  )
       142           O   tau( 142) = (   0.3334523   0.5761369   0.4070868  )
       143           O   tau( 143) = (  -0.1664957   0.5770154   0.4064639  )
       144           O   tau( 144) = (   0.5832487   0.1447377   0.4064599  )
       145           Ce  tau( 145) = (   0.0830030   0.6254686   0.4399651  )
       146           Ce  tau( 146) = (   0.3333302   0.1921665   0.4410719  )
       147           Ce  tau( 147) = (   0.5831975   0.6254025   0.4412342  )
       148           Ce  tau( 148) = (   0.8331550   0.1923349   0.4406742  )
       149           Ce  tau( 149) = (  -0.0000291   0.7698331   0.4412579  )
       150           Ce  tau( 150) = (   0.2501781   0.3367783   0.4413869  )
       151           Ce  tau( 151) = (   0.4996676   0.7693443   0.4410516  )
       152           Ce  tau( 152) = (   0.7502327   0.3367148   0.4409557  )
       153           Ce  tau( 153) = (   0.1667730   0.7696880   0.4412923  )
       154           Ce  tau( 154) = (   0.4168649   0.3372180   0.4406894  )
       155           Ce  tau( 155) = (  -0.0831205   0.3367867   0.4411104  )
       156           Ce  tau( 156) = (  -0.3333876   0.7698068   0.4410805  )
       157           Ce  tau( 157) = (   0.1660757   0.4805935   0.4392867  )
       158           Ce  tau( 158) = (   0.4168102   0.0482890   0.4410664  )
       159           Ce  tau( 159) = (   0.6665678   0.4810577   0.4410974  )
       160           Ce  tau( 160) = (   0.9164389   0.0481451   0.4409848  )
       161           Ce  tau( 161) = (   0.0834018   0.3364837   0.4411100  )
       162           Ce  tau( 162) = (   0.3336067   0.7689495   0.4417154  )
       163           Ce  tau( 163) = (  -0.1665233   0.7697101   0.4410098  )
       164           Ce  tau( 164) = (   0.5835581   0.3368812   0.4412135  )
       165           Ce  tau( 165) = (   0.2499537   0.0480934   0.4409517  )
       166           Ce  tau( 166) = (  -0.0000995   0.4806304   0.4405905  )
       167           Ce  tau( 167) = (   0.5006335   0.4813215   0.4405261  )
       168           Ce  tau( 168) = (   0.7501911   0.0476193   0.4409296  )
       169           Ce  tau( 169) = (   0.0001190   0.1924183   0.4410747  )
       170           Ce  tau( 170) = (   0.2496772   0.6251286   0.4412347  )
       171           Ce  tau( 171) = (  -0.2500776   0.6253114   0.4410435  )
       172           Ce  tau( 172) = (   0.5001797   0.1926837   0.4411210  )
       173           Ce  tau( 173) = (   0.0831559   0.0480810   0.4410276  )
       174           Ce  tau( 174) = (   0.3330395   0.4809380   0.4403286  )
       175           Ce  tau( 175) = (  -0.1666290   0.4811240   0.4414093  )
       176           Ce  tau( 176) = (   0.5835984   0.0480034   0.4409815  )
       177           Ce  tau( 177) = (   0.1668473   0.1927624   0.4413668  )
       178           Ce  tau( 178) = (   0.4164669   0.6252184   0.4416938  )
       179           Ce  tau( 179) = (  -0.0834013   0.6252454   0.4412340  )
       180           Ce  tau( 180) = (   0.6665958   0.1925883   0.4411468  )
       181           O   tau( 181) = (   0.1672640   0.3857418   0.4751289  )
       182           O   tau( 182) = (   0.4162557   0.8174651   0.4748438  )
       183           O   tau( 183) = (  -0.0830182   0.8179030   0.4748947  )
       184           O   tau( 184) = (   0.6661502   0.3849409   0.4750973  )
       185           O   tau( 185) = (   0.0831148   0.5284679   0.4724509  )
       186           O   tau( 186) = (   0.3335650   0.0967807   0.4750996  )
       187           O   tau( 187) = (   0.5828273   0.5288606   0.4753409  )
       188           O   tau( 188) = (   0.8332387   0.0959802   0.4743990  )
       189           O   tau( 189) = (   0.2497430   0.8168957   0.4750695  )
       190           O   tau( 190) = (   0.0009869   0.3853839   0.4747638  )
       191           O   tau( 191) = (  -0.2497151   0.8179803   0.4746556  )
       192           O   tau( 192) = (   0.5012871   0.3852218   0.4753225  )
       193           O   tau( 193) = (   0.1659118   0.6719246   0.4767001  )
       194           O   tau( 194) = (   0.4165649   0.2412234   0.4770805  )
       195           O   tau( 195) = (  -0.0830355   0.2406847   0.4743535  )
       196           O   tau( 196) = (  -0.3335648   0.6732257   0.4747021  )
       197           O   tau( 197) = (   0.0838433   0.8168449   0.4754690  )
       198           O   tau( 198) = (   0.3337115   0.3858022   0.4745770  )
       199           O   tau( 199) = (  -0.1666230   0.3849567   0.4744991  )
       200           O   tau( 200) = (  -0.4169293   0.8174873   0.4746032  )
       201           O   tau( 201) = (   0.2506019   0.2409858   0.4747850  )
       202           O   tau( 202) = (   0.0007496   0.6732010   0.4762226  )
       203           O   tau( 203) = (   0.4995571   0.6728346   0.4750453  )
       204           O   tau( 204) = (   0.7497358   0.2406865   0.4747380  )
       205           O   tau( 205) = (   0.2470150   0.5294061   0.4746650  )
       206           O   tau( 206) = (   0.0000393   0.0962093   0.4745641  )
       207           O   tau( 207) = (  -0.2501612   0.5290709   0.4747282  )
       208           O   tau( 208) = (   0.4999426   0.0964651   0.4749487  )
       209           O   tau( 209) = (   0.0839297   0.2411538   0.4752742  )
       210           O   tau( 210) = (   0.3338949   0.6734034   0.4754614  )
       211           O   tau( 211) = (  -0.1664372   0.6736523   0.4747555  )
       212           O   tau( 212) = (   0.5826849   0.2409251   0.4759297  )
       213           O   tau( 213) = (   0.1671148   0.0966996   0.4747773  )
       214           O   tau( 214) = (   0.4181689   0.5280015   0.4774849  )
       215           O   tau( 215) = (  -0.0824392   0.5295149   0.4758250  )
       216           O   tau( 216) = (   0.6664087   0.0959501   0.4747720  )
       217           H   tau( 217) = (   0.0524552   0.5559813   0.6045283  )
       218           N   tau( 218) = (   0.0940307   0.5652620   0.5927269  )
       219           C   tau( 219) = (   0.1231485   0.6196037   0.6061000  )
       220           N   tau( 220) = (   0.1850512   0.6104205   0.5950291  )
       221           C   tau( 221) = (   0.1901690   0.5552547   0.5921284  )
       222           C   tau( 222) = (   0.2435690   0.5210464   0.5909099  )
       223           O   tau( 223) = (   0.2917997   0.5432651   0.5903854  )
       224           N   tau( 224) = (   0.2338549   0.4625829   0.5932545  )
       225           C   tau( 225) = (   0.1798426   0.4388578   0.6000228  )
       226           N   tau( 226) = (   0.1759945   0.3838021   0.6139127  )
       227           N   tau( 227) = (   0.1291043   0.4683793   0.5936617  )
       228           C   tau( 228) = (   0.1350935   0.5241866   0.5928191  )
       229           H   tau( 229) = (   0.1063344   0.6572729   0.5833022  )
       230           H   tau( 230) = (   0.2728377   0.4362864   0.6003369  )
       231           H   tau( 231) = (   0.1356602   0.3679961   0.6213520  )
       232           H   tau( 232) = (   0.2127795   0.3567810   0.6152296  )
       233           H   tau( 233) = (   0.3596223   0.2621481   0.5955995  )
       234           N   tau( 234) = (   0.3678824   0.3048443   0.5984206  )
       235           C   tau( 235) = (   0.3209785   0.3416092   0.6043056  )
       236           O   tau( 236) = (   0.2713391   0.3193334   0.6051936  )
       237           N   tau( 237) = (   0.3303484   0.3989688   0.6064674  )
       238           C   tau( 238) = (   0.3830095   0.4204805   0.5956780  )
       239           N   tau( 239) = (   0.3891728   0.4774897   0.5912774  )
       240           C   tau( 240) = (   0.4314893   0.3833615   0.5885618  )
       241           C   tau( 241) = (   0.4221554   0.3257575   0.5907380  )
       242           H   tau( 242) = (   0.4559192   0.2937737   0.5850326  )
       243           H   tau( 243) = (   0.4741566   0.4008572   0.5816921  )
       244           H   tau( 244) = (   0.3528526   0.5035168   0.5946976  )
       245           H   tau( 245) = (   0.4230856   0.4943560   0.5686237  )
       246           N   tau( 246) = (   0.1183931   0.6279185   0.6675455  )
       247           C   tau( 247) = (   0.1228083   0.6033014   0.7119367  )
       248           N   tau( 248) = (   0.0589162   0.4471088   0.7077750  )
       249           C   tau( 249) = (   0.0798150   0.4836691   0.7359714  )
       250           N   tau( 250) = (   0.2287347   0.4720011   0.7333402  )
       251           C   tau( 251) = (   0.1922290   0.5005508   0.7536671  )
       252           Fe  tau( 252) = (   0.1218474   0.5485328   0.7821170  )
       253           C   tau( 253) = (   0.0434639   0.5904049   0.7845496  )
       254           N   tau( 254) = (   0.0007674   0.6171215   0.7771230  )
       255           C   tau( 255) = (   0.1772379   0.6115490   0.8110002  )
       256           N   tau( 256) = (   0.2071436   0.6509972   0.8220869  )
       257           C   tau( 257) = (   0.1141880   0.5115153   0.8591773  )
       258           N   tau( 258) = (   0.1091718   0.4908057   0.9050882  )

     number of k points=     1  Methfessel-Paxton smearing, width (Ry)=  0.0200
                       cart. coord. in units 2pi/alat
        k(    1) = (   0.0000000   0.0000000   0.0000000), wk =   1.0000000

     Dense  grid:  4559640 G-vectors     FFT dimensions: ( 250, 250, 324)

     Smooth grid:  1612213 G-vectors     FFT dimensions: ( 180, 180, 240)

     Estimated max dynamical RAM per process >     458.29 MB

     Estimated total dynamical RAM >     128.89 GB

     Check: negative core charge=   -0.000004
     Generating pointlists ...
     new r_m :   0.0219 (alat units)  0.9602 (a.u.) for type    1
     new r_m :   0.0409 (alat units)  1.7916 (a.u.) for type    2
     new r_m :   0.0180 (alat units)  0.7880 (a.u.) for type    3
     new r_m :   0.0180 (alat units)  0.7880 (a.u.) for type    4
     new r_m :   0.0192 (alat units)  0.8430 (a.u.) for type    5
     new r_m :   0.0354 (alat units)  1.5520 (a.u.) for type    6

     Initial potential from superposition of free atoms

     starting charge    1895.4954, renormalised to    1896.0000

     negative rho (up, down):  1.915E-02 1.242E-02
     Number of +U iterations with fixed ns =  0
     Starting occupations:

     Hubbard parameters (eV):
     U(  2) =  5.0000
     U(  6) =  6.0000

     ================= HUBBARD OCCUPATIONS ================
     --------------------- ATOM   37 ----------------------
     Tr[ns] (up, down, total) =   2.00000  0.00000  2.00000
     Atomic magnetic moment =   2.00000
     SPIN  1
     eigenvalues:
       0.286  0.286  0.286  0.286  0.286  0.286  0.286
     eigenvectors (columns):
       1.000  0.000  0.000  0.000  0.000  0.000  0.000
       0.000  1.000  0.000  0.000  0.000  0.000  0.000
       0.000  0.000  1.000  0.000  0.000  0.000  0.000
       0.000  0.000  0.000  1.000  0.000  0.000  0.000
       0.000  0.000  0.000  0.000  1.000  0.000  0.000
       0.000  0.000  0.000  0.000  0.000  1.000  0.000
       0.000  0.000  0.000  0.000  0.000  0.000  1.000
     occupation matrix ns (before diag.):
       0.286  0.000  0.000  0.000  0.000  0.000  0.000
       0.000  0.286  0.000  0.000  0.000  0.000  0.000
       0.000  0.000  0.286  0.000  0.000  0.000  0.000
       0.000  0.000  0.000  0.286  0.000  0.000  0.000
       0.000  0.000  0.000  0.000  0.286  0.000  0.000
       0.000  0.000  0.000  0.000  0.000  0.286  0.000
       0.000  0.000  0.000  0.000  0.000  0.000  0.286
     SPIN  2
     eigenvalues:
       0.000  0.000  0.000  0.000  0.000  0.000  0.000
     eigenvectors (columns):
       1.000  0.000  0.000  0.000  0.000  0.000  0.000
       0.000  1.000  0.000  0.000  0.000  0.000  0.000
       0.000  0.000  1.000  0.000  0.000  0.000  0.000
       0.000  0.000  0.000  1.000  0.000  0.000  0.000
       0.000  0.000  0.000  0.000  1.000  0.000  0.000
       0.000  0.000  0.000  0.000  0.000  1.000  0.000
       0.000  0.000  0.000  0.000  0.000  0.000  1.000
     occupation matrix ns (before diag.):
       0.000  0.000  0.000  0.000  0.000  0.000  0.000
       0.000  0.000  0.000  0.000  0.000  0.000  0.000
       0.000  0.000  0.000  0.000  0.000  0.000  0.000
       0.000  0.000  0.000  0.000  0.000  0.000  0.000
       0.000  0.000  0.000  0.000  0.000  0.000  0.000
       0.000  0.000  0.000  0.000  0.000  0.000  0.000
       0.000  0.000  0.000  0.000  0.000  0.000  0.000
     --------------------- ATOM   38 ----------------------
     Tr[ns] (up, down, total) =   2.00000  0.00000  2.00000
     Atomic magnetic moment =   2.00000
     SPIN  1
     eigenvalues:
       0.286  0.286  0.286  0.286  0.286  0.286  0.286
     eigenvectors (columns):
       1.000  0.000  0.000  0.000  0.000  0.000  0.000
       0.000  1.000  0.000  0.000  0.000  0.000  0.000
       0.000  0.000  1.000  0.000  0.000  0.000  0.000
       0.000  0.000  0.000  1.000  0.000  0.000  0.000
       0.000  0.000  0.000  0.000  1.000  0.000  0.000
       0.000  0.000  0.000  0.000  0.000  1.000  0.000
       0.000  0.000  0.000  0.000  0.000  0.000  1.000
     occupation matrix ns (before diag.):
       0.286  0.000  0.000  0.000  0.000  0.000  0.000
       0.000  0.286  0.000  0.000  0.000  0.000  0.000
       0.000  0.000  0.286  0.000  0.000  0.000  0.000
       0.000  0.000  0.000  0.286  0.000  0.000  0.000
       0.000  0.000  0.000  0.000  0.286  0.000  0.000
       0.000  0.000  0.000  0.000  0.000  0.286  0.000
       0.000  0.000  0.000  0.000  0.000  0.000  0.286
     SPIN  2
     eigenvalues:
       0.000  0.000  0.000  0.000  0.000  0.000  0.000
     eigenvectors (columns):
       1.000  0.000  0.000  0.000  0.000  0.000  0.000
       0.000  1.000  0.000  0.000  0.000  0.000  0.000
       0.000  0.000  1.000  0.000  0.000  0.000  0.000
       0.000  0.000  0.000  1.000  0.000  0.000  0.000
       0.000  0.000  0.000  0.000  1.000  0.000  0.000
       0.000  0.000  0.000  0.000  0.000  1.000  0.000
       0.000  0.000  0.000  0.000  0.000  0.000  1.000
     occupation matrix ns (before diag.):
       0.000  0.000  0.000  0.000  0.000  0.000  0.000
       0.000  0.000  0.000  0.000  0.000  0.000  0.000
       0.000  0.000  0.000  0.000  0.000  0.000  0.000
       0.000  0.000  0.000  0.000  0.000  0.000  0.000
       0.000  0.000  0.000  0.000  0.000  0.000  0.000
       0.000  0.000  0.000  0.000  0.000  0.000  0.000
       0.000  0.000  0.000  0.000  0.000  0.000  0.000
     --------------------- ATOM   39 ----------------------
     Tr[ns] (up, down, total) =   2.00000  0.00000  2.00000
     Atomic magnetic moment =   2.00000
     SPIN  1
     eigenvalues:
       0.286  0.286  0.286  0.286  0.286  0.286  0.286
     eigenvectors (columns):
       1.000  0.000  0.000  0.000  0.000  0.000  0.000
       0.000  1.000  0.000  0.000  0.000  0.000  0.000
       0.000  0.000  1.000  0.000  0.000  0.000  0.000
       0.000  0.000  0.000  1.000  0.000  0.000  0.000
       0.000  0.000  0.000  0.000  1.000  0.000  0.000
       0.000  0.000  0.000  0.000  0.000  1.000  0.000
       0.000  0.000  0.000  0.000  0.000  0.000  1.000
     occupation matrix ns (before diag.):
       0.286  0.000  0.000  0.000  0.000  0.000  0.000
       0.000  0.286  0.000  0.000  0.000  0.000  0.000
       0.000  0.000  0.286  0.000  0.000  0.000  0.000
       0.000  0.000  0.000  0.286  0.000  0.000  0.000
       0.000  0.000  0.000  0.000  0.286  0.000  0.000
       0.000  0.000  0.000  0.000  0.000  0.286  0.000
       0.000  0.000  0.000  0.000  0.000  0.000  0.286
     SPIN  2
     eigenvalues:
       0.000  0.000  0.000  0.000  0.000  0.000  0.000
     eigenvectors (columns):
       1.000  0.000  0.000  0.000  0.000  0.000  0.000
       0.000  1.000  0.000  0.000  0.000  0.000  0.000
       0.000  0.000  1.000  0.000  0.000  0.000  0.000
       0.000  0.000  0.000  1.000  0.000  0.000  0.000
       0.000  0.000  0.000  0.000  1.000  0.000  0.000
       0.000  0.000  0.000  0.000  0.000  1.000  0.000
       0.000  0.000  0.000  0.000  0.000  0.000  1.000
     occupation matrix ns (before diag.):
       0.000  0.000  0.000  0.000  0.000  0.000  0.000
       0.000  0.000  0.000  0.000  0.000  0.000  0.000
       0.000  0.000  0.000  0.000  0.000  0.000  0.000
       0.000  0.000  0.000  0.000  0.000  0.000  0.000
       0.000  0.000  0.000  0.000  0.000  0.000  0.000
       0.000  0.000  0.000  0.000  0.000  0.000  0.000
       0.000  0.000  0.000  0.000  0.000  0.000  0.000
     --------------------- ATOM   40 ----------------------
     Tr[ns] (up, down, total) =   2.00000  0.00000  2.00000
     Atomic magnetic moment =   2.00000
     SPIN  1
     eigenvalues:
       0.286  0.286  0.286  0.286  0.286  0.286  0.286
     eigenvectors (columns):
       1.000  0.000  0.000  0.000  0.000  0.000  0.000
       0.000  1.000  0.000  0.000  0.000  0.000  0.000
       0.000  0.000  1.000  0.000  0.000  0.000  0.000
       0.000  0.000  0.000  1.000  0.000  0.000  0.000
       0.000  0.000  0.000  0.000  1.000  0.000  0.000
       0.000  0.000  0.000  0.000  0.000  1.000  0.000
       0.000  0.000  0.000  0.000  0.000  0.000  1.000
     occupation matrix ns (before diag.):
       0.286  0.000  0.000  0.000  0.000  0.000  0.000
       0.000  0.286  0.000  0.000  0.000  0.000  0.000
       0.000  0.000  0.286  0.000  0.000  0.000  0.000
       0.000  0.000  0.000  0.286  0.000  0.000  0.000
       0.000  0.000  0.000  0.000  0.286  0.000  0.000
       0.000  0.000  0.000  0.000  0.000  0.286  0.000
       0.000  0.000  0.000  0.000  0.000  0.000  0.286
     SPIN  2
     eigenvalues:
       0.000  0.000  0.000  0.000  0.000  0.000  0.000
     eigenvectors (columns):
       1.000  0.000  0.000  0.000  0.000  0.000  0.000
       0.000  1.000  0.000  0.000  0.000  0.000  0.000
       0.000  0.000  1.000  0.000  0.000  0.000  0.000
       0.000  0.000  0.000  1.000  0.000  0.000  0.000
       0.000  0.000  0.000  0.000  1.000  0.000  0.000
       0.000  0.000  0.000  0.000  0.000  1.000  0.000
       0.000  0.000  0.000  0.000  0.000  0.000  1.000
     occupation matrix ns (before diag.):
       0.000  0.000  0.000  0.000  0.000  0.000  0.000
       0.000  0.000  0.000  0.000  0.000  0.000  0.000
       0.000  0.000  0.000  0.000  0.000  0.000  0.000
       0.000  0.000  0.000  0.000  0.000  0.000  0.000
       0.000  0.000  0.000  0.000  0.000  0.000  0.000
       0.000  0.000  0.000  0.000  0.000  0.000  0.000
       0.000  0.000  0.000  0.000  0.000  0.000  0.000
     --------------------- ATOM   41 ----------------------
     Tr[ns] (up, down, total) =   2.00000  0.00000  2.00000
     Atomic magnetic moment =   2.00000
     SPIN  1
     eigenvalues:
       0.286  0.286  0.286  0.286  0.286  0.286  0.286
     eigenvectors (columns):
       1.000  0.000  0.000  0.000  0.000  0.000  0.000
       0.000  1.000  0.000  0.000  0.000  0.000  0.000
       0.000  0.000  1.000  0.000  0.000  0.000  0.000
       0.000  0.000  0.000  1.000  0.000  0.000  0.000
       0.000  0.000  0.000  0.000  1.000  0.000  0.000
       0.000  0.000  0.000  0.000  0.000  1.000  0.000
       0.000  0.000  0.000  0.000  0.000  0.000  1.000
     occupation matrix ns (before diag.):
       0.286  0.000  0.000  0.000  0.000  0.000  0.000
       0.000  0.286  0.000  0.000  0.000  0.000  0.000
       0.000  0.000  0.286  0.000  0.000  0.000  0.000
       0.000  0.000  0.000  0.286  0.000  0.000  0.000
       0.000  0.000  0.000  0.000  0.286  0.000  0.000
       0.000  0.000  0.000  0.000  0.000  0.286  0.000
       0.000  0.000  0.000  0.000  0.000  0.000  0.286
     SPIN  2
     eigenvalues:
       0.000  0.000  0.000  0.000  0.000  0.000  0.000
     eigenvectors (columns):
       1.000  0.000  0.000  0.000  0.000  0.000  0.000
       0.000  1.000  0.000  0.000  0.000  0.000  0.000
       0.000  0.000  1.000  0.000  0.000  0.000  0.000
       0.000  0.000  0.000  1.000  0.000  0.000  0.000
       0.000  0.000  0.000  0.000  1.000  0.000  0.000
       0.000  0.000  0.000  0.000  0.000  1.000  0.000
       0.000  0.000  0.000  0.000  0.000  0.000  1.000
     occupation matrix ns (before diag.):
       0.000  0.000  0.000  0.000  0.000  0.000  0.000
       0.000  0.000  0.000  0.000  0.000  0.000  0.000
       0.000  0.000  0.000  0.000  0.000  0.000  0.000
       0.000  0.000  0.000  0.000  0.000  0.000  0.000
       0.000  0.000  0.000  0.000  0.000  0.000  0.000
       0.000  0.000  0.000  0.000  0.000  0.000  0.000
       0.000  0.000  0.000  0.000  0.000  0.000  0.000
     --------------------- ATOM   42 ----------------------
     Tr[ns] (up, down, total) =   2.00000  0.00000  2.00000
     Atomic magnetic moment =   2.00000
     SPIN  1
     eigenvalues:
       0.286  0.286  0.286  0.286  0.286  0.286  0.286
     eigenvectors (columns):
       1.000  0.000  0.000  0.000  0.000  0.000  0.000
       0.000  1.000  0.000  0.000  0.000  0.000  0.000
       0.000  0.000  1.000  0.000  0.000  0.000  0.000
       0.000  0.000  0.000  1.000  0.000  0.000  0.000
       0.000  0.000  0.000  0.000  1.000  0.000  0.000
       0.000  0.000  0.000  0.000  0.000  1.000  0.000
       0.000  0.000  0.000  0.000  0.000  0.000  1.000
     occupation matrix ns (before diag.):
       0.286  0.000  0.000  0.000  0.000  0.000  0.000
       0.000  0.286  0.000  0.000  0.000  0.000  0.000
       0.000  0.000  0.286  0.000  0.000  0.000  0.000
       0.000  0.000  0.000  0.286  0.000  0.000  0.000
       0.000  0.000  0.000  0.000  0.286  0.000  0.000
       0.000  0.000  0.000  0.000  0.000  0.286  0.000
       0.000  0.000  0.000  0.000  0.000  0.000  0.286
     SPIN  2
     eigenvalues:
       0.000  0.000  0.000  0.000  0.000  0.000  0.000
     eigenvectors (columns):
       1.000  0.000  0.000  0.000  0.000  0.000  0.000
       0.000  1.000  0.000  0.000  0.000  0.000  0.000
       0.000  0.000  1.000  0.000  0.000  0.000  0.000
       0.000  0.000  0.000  1.000  0.000  0.000  0.000
       0.000  0.000  0.000  0.000  1.000  0.000  0.000
       0.000  0.000  0.000  0.000  0.000  1.000  0.000
       0.000  0.000  0.000  0.000  0.000  0.000  1.000
     occupation matrix ns (before diag.):
       0.000  0.000  0.000  0.000  0.000  0.000  0.000
       0.000  0.000  0.000  0.000  0.000  0.000  0.000
       0.000  0.000  0.000  0.000  0.000  0.000  0.000
       0.000  0.000  0.000  0.000  0.000  0.000  0.000
       0.000  0.000  0.000  0.000  0.000  0.000  0.000
       0.000  0.000  0.000  0.000  0.000  0.000  0.000
       0.000  0.000  0.000  0.000  0.000  0.000  0.000
     --------------------- ATOM   43 ----------------------
     Tr[ns] (up, down, total) =   2.00000  0.00000  2.00000
     Atomic magnetic moment =   2.00000
     SPIN  1
     eigenvalues:
       0.286  0.286  0.286  0.286  0.286  0.286  0.286
     eigenvectors (columns):
       1.000  0.000  0.000  0.000  0.000  0.000  0.000
       0.000  1.000  0.000  0.000  0.000  0.000  0.000
       0.000  0.000  1.000  0.000  0.000  0.000  0.000
       0.000  0.000  0.000  1.000  0.000  0.000  0.000
       0.000  0.000  0.000  0.000  1.000  0.000  0.000
       0.000  0.000  0.000  0.000  0.000  1.000  0.000
       0.000  0.000  0.000  0.000  0.000  0.000  1.000
     occupation matrix ns (before diag.):
       0.286  0.000  0.000  0.000  0.000  0.000  0.000
       0.000  0.286  0.000  0.000  0.000  0.000  0.000
       0.000  0.000  0.286  0.000  0.000  0.000  0.000
       0.000  0.000  0.000  0.286  0.000  0.000  0.000
       0.000  0.000  0.000  0.000  0.286  0.000  0.000
       0.000  0.000  0.000  0.000  0.000  0.286  0.000
       0.000  0.000  0.000  0.000  0.000  0.000  0.286
     SPIN  2
     eigenvalues:
       0.000  0.000  0.000  0.000  0.000  0.000  0.000
     eigenvectors (columns):
       1.000  0.000  0.000  0.000  0.000  0.000  0.000
       0.000  1.000  0.000  0.000  0.000  0.000  0.000
       0.000  0.000  1.000  0.000  0.000  0.000  0.000
       0.000  0.000  0.000  1.000  0.000  0.000  0.000
       0.000  0.000  0.000  0.000  1.000  0.000  0.000
       0.000  0.000  0.000  0.000  0.000  1.000  0.000
       0.000  0.000  0.000  0.000  0.000  0.000  1.000
     occupation matrix ns (before diag.):
       0.000  0.000  0.000  0.000  0.000  0.000  0.000
       0.000  0.000  0.000  0.000  0.000  0.000  0.000
       0.000  0.000  0.000  0.000  0.000  0.000  0.000
       0.000  0.000  0.000  0.000  0.000  0.000  0.000
       0.000  0.000  0.000  0.000  0.000  0.000  0.000
       0.000  0.000  0.000  0.000  0.000  0.000  0.000
       0.000  0.000  0.000  0.000  0.000  0.000  0.000
     --------------------- ATOM   44 ----------------------
     Tr[ns] (up, down, total) =   2.00000  0.00000  2.00000
     Atomic magnetic moment =   2.00000
     SPIN  1
     eigenvalues:
       0.286  0.286  0.286  0.286  0.286  0.286  0.286
     eigenvectors (columns):
       1.000  0.000  0.000  0.000  0.000  0.000  0.000
       0.000  1.000  0.000  0.000  0.000  0.000  0.000
       0.000  0.000  1.000  0.000  0.000  0.000  0.000
       0.000  0.000  0.000  1.000  0.000  0.000  0.000
       0.000  0.000  0.000  0.000  1.000  0.000  0.000
       0.000  0.000  0.000  0.000  0.000  1.000  0.000
       0.000  0.000  0.000  0.000  0.000  0.000  1.000
     occupation matrix ns (before diag.):
       0.286  0.000  0.000  0.000  0.000  0.000  0.000
       0.000  0.286  0.000  0.000  0.000  0.000  0.000
       0.000  0.000  0.286  0.000  0.000  0.000  0.000
       0.000  0.000  0.000  0.286  0.000  0.000  0.000
       0.000  0.000  0.000  0.000  0.286  0.000  0.000
       0.000  0.000  0.000  0.000  0.000  0.286  0.000
       0.000  0.000  0.000  0.000  0.000  0.000  0.286
     SPIN  2
     eigenvalues:
       0.000  0.000  0.000  0.000  0.000  0.000  0.000
     eigenvectors (columns):
       1.000  0.000  0.000  0.000  0.000  0.000  0.000
       0.000  1.000  0.000  0.000  0.000  0.000  0.000
       0.000  0.000  1.000  0.000  0.000  0.000  0.000
       0.000  0.000  0.000  1.000  0.000  0.000  0.000
       0.000  0.000  0.000  0.000  1.000  0.000  0.000
       0.000  0.000  0.000  0.000  0.000  1.000  0.000
       0.000  0.000  0.000  0.000  0.000  0.000  1.000
     occupation matrix ns (before diag.):
       0.000  0.000  0.000  0.000  0.000  0.000  0.000
       0.000  0.000  0.000  0.000  0.000  0.000  0.000
       0.000  0.000  0.000  0.000  0.000  0.000  0.000
       0.000  0.000  0.000  0.000  0.000  0.000  0.000
       0.000  0.000  0.000  0.000  0.000  0.000  0.000
       0.000  0.000  0.000  0.000  0.000  0.000  0.000
       0.000  0.000  0.000  0.000  0.000  0.000  0.000
     --------------------- ATOM   45 ----------------------
     Tr[ns] (up, down, total) =   2.00000  0.00000  2.00000
     Atomic magnetic moment =   2.00000
     SPIN  1
     eigenvalues:
       0.286  0.286  0.286  0.286  0.286  0.286  0.286
     eigenvectors (columns):
       1.000  0.000  0.000  0.000  0.000  0.000  0.000
       0.000  1.000  0.000  0.000  0.000  0.000  0.000
       0.000  0.000  1.000  0.000  0.000  0.000  0.000
       0.000  0.000  0.000  1.000  0.000  0.000  0.000
       0.000  0.000  0.000  0.000  1.000  0.000  0.000
       0.000  0.000  0.000  0.000  0.000  1.000  0.000
       0.000  0.000  0.000  0.000  0.000  0.000  1.000
     occupation matrix ns (before diag.):
       0.286  0.000  0.000  0.000  0.000  0.000  0.000
       0.000  0.286  0.000  0.000  0.000  0.000  0.000
       0.000  0.000  0.286  0.000  0.000  0.000  0.000
       0.000  0.000  0.000  0.286  0.000  0.000  0.000
       0.000  0.000  0.000  0.000  0.286  0.000  0.000
       0.000  0.000  0.000  0.000  0.000  0.286  0.000
       0.000  0.000  0.000  0.000  0.000  0.000  0.286
     SPIN  2
     eigenvalues:
       0.000  0.000  0.000  0.000  0.000  0.000  0.000
     eigenvectors (columns):
       1.000  0.000  0.000  0.000  0.000  0.000  0.000
       0.000  1.000  0.000  0.000  0.000  0.000  0.000
       0.000  0.000  1.000  0.000  0.000  0.000  0.000
       0.000  0.000  0.000  1.000  0.000  0.000  0.000
       0.000  0.000  0.000  0.000  1.000  0.000  0.000
       0.000  0.000  0.000  0.000  0.000  1.000  0.000
       0.000  0.000  0.000  0.000  0.000  0.000  1.000
     occupation matrix ns (before diag.):
       0.000  0.000  0.000  0.000  0.000  0.000  0.000
       0.000  0.000  0.000  0.000  0.000  0.000  0.000
       0.000  0.000  0.000  0.000  0.000  0.000  0.000
       0.000  0.000  0.000  0.000  0.000  0.000  0.000
       0.000  0.000  0.000  0.000  0.000  0.000  0.000
       0.000  0.000  0.000  0.000  0.000  0.000  0.000
       0.000  0.000  0.000  0.000  0.000  0.000  0.000
     --------------------- ATOM   46 ----------------------
     Tr[ns] (up, down, total) =   2.00000  0.00000  2.00000
     Atomic magnetic moment =   2.00000
     SPIN  1
     eigenvalues:
       0.286  0.286  0.286  0.286  0.286  0.286  0.286
     eigenvectors (columns):
       1.000  0.000  0.000  0.000  0.000  0.000  0.000
       0.000  1.000  0.000  0.000  0.000  0.000  0.000
       0.000  0.000  1.000  0.000  0.000  0.000  0.000
       0.000  0.000  0.000  1.000  0.000  0.000  0.000
       0.000  0.000  0.000  0.000  1.000  0.000  0.000
       0.000  0.000  0.000  0.000  0.000  1.000  0.000
       0.000  0.000  0.000  0.000  0.000  0.000  1.000
     occupation matrix ns (before diag.):
       0.286  0.000  0.000  0.000  0.000  0.000  0.000
       0.000  0.286  0.000  0.000  0.000  0.000  0.000
       0.000  0.000  0.286  0.000  0.000  0.000  0.000
       0.000  0.000  0.000  0.286  0.000  0.000  0.000
       0.000  0.000  0.000  0.000  0.286  0.000  0.000
       0.000  0.000  0.000  0.000  0.000  0.286  0.000
       0.000  0.000  0.000  0.000  0.000  0.000  0.286
     SPIN  2
     eigenvalues:
       0.000  0.000  0.000  0.000  0.000  0.000  0.000
     eigenvectors (columns):
       1.000  0.000  0.000  0.000  0.000  0.000  0.000
       0.000  1.000  0.000  0.000  0.000  0.000  0.000
       0.000  0.000  1.000  0.000  0.000  0.000  0.000
       0.000  0.000  0.000  1.000  0.000  0.000  0.000
       0.000  0.000  0.000  0.000  1.000  0.000  0.000
       0.000  0.000  0.000  0.000  0.000  1.000  0.000
       0.000  0.000  0.000  0.000  0.000  0.000  1.000
     occupation matrix ns (before diag.):
       0.000  0.000  0.000  0.000  0.000  0.000  0.000
       0.000  0.000  0.000  0.000  0.000  0.000  0.000
       0.000  0.000  0.000  0.000  0.000  0.000  0.000
       0.000  0.000  0.000  0.000  0.000  0.000  0.000
       0.000  0.000  0.000  0.000  0.000  0.000  0.000
       0.000  0.000  0.000  0.000  0.000  0.000  0.000
       0.000  0.000  0.000  0.000  0.000  0.000  0.000
     --------------------- ATOM   47 ----------------------
     Tr[ns] (up, down, total) =   2.00000  0.00000  2.00000
     Atomic magnetic moment =   2.00000
     SPIN  1
     eigenvalues:
       0.286  0.286  0.286  0.286  0.286  0.286  0.286
     eigenvectors (columns):
       1.000  0.000  0.000  0.000  0.000  0.000  0.000
       0.000  1.000  0.000  0.000  0.000  0.000  0.000
       0.000  0.000  1.000  0.000  0.000  0.000  0.000
       0.000  0.000  0.000  1.000  0.000  0.000  0.000
       0.000  0.000  0.000  0.000  1.000  0.000  0.000
       0.000  0.000  0.000  0.000  0.000  1.000  0.000
       0.000  0.000  0.000  0.000  0.000  0.000  1.000
     occupation matrix ns (before diag.):
       0.286  0.000  0.000  0.000  0.000  0.000  0.000
       0.000  0.286  0.000  0.000  0.000  0.000  0.000
       0.000  0.000  0.286  0.000  0.000  0.000  0.000
       0.000  0.000  0.000  0.286  0.000  0.000  0.000
       0.000  0.000  0.000  0.000  0.286  0.000  0.000
       0.000  0.000  0.000  0.000  0.000  0.286  0.000
       0.000  0.000  0.000  0.000  0.000  0.000  0.286
     SPIN  2
     eigenvalues:
       0.000  0.000  0.000  0.000  0.000  0.000  0.000
     eigenvectors (columns):
       1.000  0.000  0.000  0.000  0.000  0.000  0.000
       0.000  1.000  0.000  0.000  0.000  0.000  0.000
       0.000  0.000  1.000  0.000  0.000  0.000  0.000
       0.000  0.000  0.000  1.000  0.000  0.000  0.000
       0.000  0.000  0.000  0.000  1.000  0.000  0.000
       0.000  0.000  0.000  0.000  0.000  1.000  0.000
       0.000  0.000  0.000  0.000  0.000  0.000  1.000
     occupation matrix ns (before diag.):
       0.000  0.000  0.000  0.000  0.000  0.000  0.000
       0.000  0.000  0.000  0.000  0.000  0.000  0.000
       0.000  0.000  0.000  0.000  0.000  0.000  0.000
       0.000  0.000  0.000  0.000  0.000  0.000  0.000
       0.000  0.000  0.000  0.000  0.000  0.000  0.000
       0.000  0.000  0.000  0.000  0.000  0.000  0.000
       0.000  0.000  0.000  0.000  0.000  0.000  0.000
     --------------------- ATOM   48 ----------------------
     Tr[ns] (up, down, total) =   2.00000  0.00000  2.00000
     Atomic magnetic moment =   2.00000
     SPIN  1
     eigenvalues:
       0.286  0.286  0.286  0.286  0.286  0.286  0.286
     eigenvectors (columns):
       1.000  0.000  0.000  0.000  0.000  0.000  0.000
       0.000  1.000  0.000  0.000  0.000  0.000  0.000
       0.000  0.000  1.000  0.000  0.000  0.000  0.000
       0.000  0.000  0.000  1.000  0.000  0.000  0.000
       0.000  0.000  0.000  0.000  1.000  0.000  0.000
       0.000  0.000  0.000  0.000  0.000  1.000  0.000
       0.000  0.000  0.000  0.000  0.000  0.000  1.000
     occupation matrix ns (before diag.):
       0.286  0.000  0.000  0.000  0.000  0.000  0.000
       0.000  0.286  0.000  0.000  0.000  0.000  0.000
       0.000  0.000  0.286  0.000  0.000  0.000  0.000
       0.000  0.000  0.000  0.286  0.000  0.000  0.000
       0.000  0.000  0.000  0.000  0.286  0.000  0.000
       0.000  0.000  0.000  0.000  0.000  0.286  0.000
       0.000  0.000  0.000  0.000  0.000  0.000  0.286
     SPIN  2
     eigenvalues:
       0.000  0.000  0.000  0.000  0.000  0.000  0.000
     eigenvectors (columns):
       1.000  0.000  0.000  0.000  0.000  0.000  0.000
       0.000  1.000  0.000  0.000  0.000  0.000  0.000
       0.000  0.000  1.000  0.000  0.000  0.000  0.000
       0.000  0.000  0.000  1.000  0.000  0.000  0.000
       0.000  0.000  0.000  0.000  1.000  0.000  0.000
       0.000  0.000  0.000  0.000  0.000  1.000  0.000
       0.000  0.000  0.000  0.000  0.000  0.000  1.000
     occupation matrix ns (before diag.):
       0.000  0.000  0.000  0.000  0.000  0.000  0.000
       0.000  0.000  0.000  0.000  0.000  0.000  0.000
       0.000  0.000  0.000  0.000  0.000  0.000  0.000
       0.000  0.000  0.000  0.000  0.000  0.000  0.000
       0.000  0.000  0.000  0.000  0.000  0.000  0.000
       0.000  0.000  0.000  0.000  0.000  0.000  0.000
       0.000  0.000  0.000  0.000  0.000  0.000  0.000
     --------------------- ATOM   49 ----------------------
     Tr[ns] (up, down, total) =   2.00000  0.00000  2.00000
     Atomic magnetic moment =   2.00000
     SPIN  1
     eigenvalues:
       0.286  0.286  0.286  0.286  0.286  0.286  0.286
     eigenvectors (columns):
       1.000  0.000  0.000  0.000  0.000  0.000  0.000
       0.000  1.000  0.000  0.000  0.000  0.000  0.000
       0.000  0.000  1.000  0.000  0.000  0.000  0.000
       0.000  0.000  0.000  1.000  0.000  0.000  0.000
       0.000  0.000  0.000  0.000  1.000  0.000  0.000
       0.000  0.000  0.000  0.000  0.000  1.000  0.000
       0.000  0.000  0.000  0.000  0.000  0.000  1.000
     occupation matrix ns (before diag.):
       0.286  0.000  0.000  0.000  0.000  0.000  0.000
       0.000  0.286  0.000  0.000  0.000  0.000  0.000
       0.000  0.000  0.286  0.000  0.000  0.000  0.000
       0.000  0.000  0.000  0.286  0.000  0.000  0.000
       0.000  0.000  0.000  0.000  0.286  0.000  0.000
       0.000  0.000  0.000  0.000  0.000  0.286  0.000
       0.000  0.000  0.000  0.000  0.000  0.000  0.286
     SPIN  2
     eigenvalues:
       0.000  0.000  0.000  0.000  0.000  0.000  0.000
     eigenvectors (columns):
       1.000  0.000  0.000  0.000  0.000  0.000  0.000
       0.000  1.000  0.000  0.000  0.000  0.000  0.000
       0.000  0.000  1.000  0.000  0.000  0.000  0.000
       0.000  0.000  0.000  1.000  0.000  0.000  0.000
       0.000  0.000  0.000  0.000  1.000  0.000  0.000
       0.000  0.000  0.000  0.000  0.000  1.000  0.000
       0.000  0.000  0.000  0.000  0.000  0.000  1.000
     occupation matrix ns (before diag.):
       0.000  0.000  0.000  0.000  0.000  0.000  0.000
       0.000  0.000  0.000  0.000  0.000  0.000  0.000
       0.000  0.000  0.000  0.000  0.000  0.000  0.000
       0.000  0.000  0.000  0.000  0.000  0.000  0.000
       0.000  0.000  0.000  0.000  0.000  0.000  0.000
       0.000  0.000  0.000  0.000  0.000  0.000  0.000
       0.000  0.000  0.000  0.000  0.000  0.000  0.000
     --------------------- ATOM   50 ----------------------
     Tr[ns] (up, down, total) =   2.00000  0.00000  2.00000
     Atomic magnetic moment =   2.00000
     SPIN  1
     eigenvalues:
       0.286  0.286  0.286  0.286  0.286  0.286  0.286
     eigenvectors (columns):
       1.000  0.000  0.000  0.000  0.000  0.000  0.000
       0.000  1.000  0.000  0.000  0.000  0.000  0.000
       0.000  0.000  1.000  0.000  0.000  0.000  0.000
       0.000  0.000  0.000  1.000  0.000  0.000  0.000
       0.000  0.000  0.000  0.000  1.000  0.000  0.000
       0.000  0.000  0.000  0.000  0.000  1.000  0.000
       0.000  0.000  0.000  0.000  0.000  0.000  1.000
     occupation matrix ns (before diag.):
       0.286  0.000  0.000  0.000  0.000  0.000  0.000
       0.000  0.286  0.000  0.000  0.000  0.000  0.000
       0.000  0.000  0.286  0.000  0.000  0.000  0.000
       0.000  0.000  0.000  0.286  0.000  0.000  0.000
       0.000  0.000  0.000  0.000  0.286  0.000  0.000
       0.000  0.000  0.000  0.000  0.000  0.286  0.000
       0.000  0.000  0.000  0.000  0.000  0.000  0.286
     SPIN  2
     eigenvalues:
       0.000  0.000  0.000  0.000  0.000  0.000  0.000
     eigenvectors (columns):
       1.000  0.000  0.000  0.000  0.000  0.000  0.000
       0.000  1.000  0.000  0.000  0.000  0.000  0.000
       0.000  0.000  1.000  0.000  0.000  0.000  0.000
       0.000  0.000  0.000  1.000  0.000  0.000  0.000
       0.000  0.000  0.000  0.000  1.000  0.000  0.000
       0.000  0.000  0.000  0.000  0.000  1.000  0.000
       0.000  0.000  0.000  0.000  0.000  0.000  1.000
     occupation matrix ns (before diag.):
       0.000  0.000  0.000  0.000  0.000  0.000  0.000
       0.000  0.000  0.000  0.000  0.000  0.000  0.000
       0.000  0.000  0.000  0.000  0.000  0.000  0.000
       0.000  0.000  0.000  0.000  0.000  0.000  0.000
       0.000  0.000  0.000  0.000  0.000  0.000  0.000
       0.000  0.000  0.000  0.000  0.000  0.000  0.000
       0.000  0.000  0.000  0.000  0.000  0.000  0.000
     --------------------- ATOM   51 ----------------------
     Tr[ns] (up, down, total) =   2.00000  0.00000  2.00000
     Atomic magnetic moment =   2.00000
     SPIN  1
     eigenvalues:
       0.286  0.286  0.286  0.286  0.286  0.286  0.286
     eigenvectors (columns):
       1.000  0.000  0.000  0.000  0.000  0.000  0.000
       0.000  1.000  0.000  0.000  0.000  0.000  0.000
       0.000  0.000  1.000  0.000  0.000  0.000  0.000
       0.000  0.000  0.000  1.000  0.000  0.000  0.000
       0.000  0.000  0.000  0.000  1.000  0.000  0.000
       0.000  0.000  0.000  0.000  0.000  1.000  0.000
       0.000  0.000  0.000  0.000  0.000  0.000  1.000
     occupation matrix ns (before diag.):
       0.286  0.000  0.000  0.000  0.000  0.000  0.000
       0.000  0.286  0.000  0.000  0.000  0.000  0.000
       0.000  0.000  0.286  0.000  0.000  0.000  0.000
       0.000  0.000  0.000  0.286  0.000  0.000  0.000
       0.000  0.000  0.000  0.000  0.286  0.000  0.000
       0.000  0.000  0.000  0.000  0.000  0.286  0.000
       0.000  0.000  0.000  0.000  0.000  0.000  0.286
     SPIN  2
     eigenvalues:
       0.000  0.000  0.000  0.000  0.000  0.000  0.000
     eigenvectors (columns):
       1.000  0.000  0.000  0.000  0.000  0.000  0.000
       0.000  1.000  0.000  0.000  0.000  0.000  0.000
       0.000  0.000  1.000  0.000  0.000  0.000  0.000
       0.000  0.000  0.000  1.000  0.000  0.000  0.000
       0.000  0.000  0.000  0.000  1.000  0.000  0.000
       0.000  0.000  0.000  0.000  0.000  1.000  0.000
       0.000  0.000  0.000  0.000  0.000  0.000  1.000
     occupation matrix ns (before diag.):
       0.000  0.000  0.000  0.000  0.000  0.000  0.000
       0.000  0.000  0.000  0.000  0.000  0.000  0.000
       0.000  0.000  0.000  0.000  0.000  0.000  0.000
       0.000  0.000  0.000  0.000  0.000  0.000  0.000
       0.000  0.000  0.000  0.000  0.000  0.000  0.000
       0.000  0.000  0.000  0.000  0.000  0.000  0.000
       0.000  0.000  0.000  0.000  0.000  0.000  0.000
     --------------------- ATOM   52 ----------------------
     Tr[ns] (up, down, total) =   2.00000  0.00000  2.00000
     Atomic magnetic moment =   2.00000
     SPIN  1
     eigenvalues:
       0.286  0.286  0.286  0.286  0.286  0.286  0.286
     eigenvectors (columns):
       1.000  0.000  0.000  0.000  0.000  0.000  0.000
       0.000  1.000  0.000  0.000  0.000  0.000  0.000
       0.000  0.000  1.000  0.000  0.000  0.000  0.000
       0.000  0.000  0.000  1.000  0.000  0.000  0.000
       0.000  0.000  0.000  0.000  1.000  0.000  0.000
       0.000  0.000  0.000  0.000  0.000  1.000  0.000
       0.000  0.000  0.000  0.000  0.000  0.000  1.000
     occupation matrix ns (before diag.):
       0.286  0.000  0.000  0.000  0.000  0.000  0.000
       0.000  0.286  0.000  0.000  0.000  0.000  0.000
       0.000  0.000  0.286  0.000  0.000  0.000  0.000
       0.000  0.000  0.000  0.286  0.000  0.000  0.000
       0.000  0.000  0.000  0.000  0.286  0.000  0.000
       0.000  0.000  0.000  0.000  0.000  0.286  0.000
       0.000  0.000  0.000  0.000  0.000  0.000  0.286
     SPIN  2
     eigenvalues:
       0.000  0.000  0.000  0.000  0.000  0.000  0.000
     eigenvectors (columns):
       1.000  0.000  0.000  0.000  0.000  0.000  0.000
       0.000  1.000  0.000  0.000  0.000  0.000  0.000
       0.000  0.000  1.000  0.000  0.000  0.000  0.000
       0.000  0.000  0.000  1.000  0.000  0.000  0.000
       0.000  0.000  0.000  0.000  1.000  0.000  0.000
       0.000  0.000  0.000  0.000  0.000  1.000  0.000
       0.000  0.000  0.000  0.000  0.000  0.000  1.000
     occupation matrix ns (before diag.):
       0.000  0.000  0.000  0.000  0.000  0.000  0.000
       0.000  0.000  0.000  0.000  0.000  0.000  0.000
       0.000  0.000  0.000  0.000  0.000  0.000  0.000
       0.000  0.000  0.000  0.000  0.000  0.000  0.000
       0.000  0.000  0.000  0.000  0.000  0.000  0.000
       0.000  0.000  0.000  0.000  0.000  0.000  0.000
       0.000  0.000  0.000  0.000  0.000  0.000  0.000
     --------------------- ATOM   53 ----------------------
     Tr[ns] (up, down, total) =   2.00000  0.00000  2.00000
     Atomic magnetic moment =   2.00000
     SPIN  1
     eigenvalues:
       0.286  0.286  0.286  0.286  0.286  0.286  0.286
     eigenvectors (columns):
       1.000  0.000  0.000  0.000  0.000  0.000  0.000
       0.000  1.000  0.000  0.000  0.000  0.000  0.000
       0.000  0.000  1.000  0.000  0.000  0.000  0.000
       0.000  0.000  0.000  1.000  0.000  0.000  0.000
       0.000  0.000  0.000  0.000  1.000  0.000  0.000
       0.000  0.000  0.000  0.000  0.000  1.000  0.000
       0.000  0.000  0.000  0.000  0.000  0.000  1.000
     occupation matrix ns (before diag.):
       0.286  0.000  0.000  0.000  0.000  0.000  0.000
       0.000  0.286  0.000  0.000  0.000  0.000  0.000
       0.000  0.000  0.286  0.000  0.000  0.000  0.000
       0.000  0.000  0.000  0.286  0.000  0.000  0.000
       0.000  0.000  0.000  0.000  0.286  0.000  0.000
       0.000  0.000  0.000  0.000  0.000  0.286  0.000
       0.000  0.000  0.000  0.000  0.000  0.000  0.286
     SPIN  2
     eigenvalues:
       0.000  0.000  0.000  0.000  0.000  0.000  0.000
     eigenvectors (columns):
       1.000  0.000  0.000  0.000  0.000  0.000  0.000
       0.000  1.000  0.000  0.000  0.000  0.000  0.000
       0.000  0.000  1.000  0.000  0.000  0.000  0.000
       0.000  0.000  0.000  1.000  0.000  0.000  0.000
       0.000  0.000  0.000  0.000  1.000  0.000  0.000
       0.000  0.000  0.000  0.000  0.000  1.000  0.000
       0.000  0.000  0.000  0.000  0.000  0.000  1.000
     occupation matrix ns (before diag.):
       0.000  0.000  0.000  0.000  0.000  0.000  0.000
       0.000  0.000  0.000  0.000  0.000  0.000  0.000
       0.000  0.000  0.000  0.000  0.000  0.000  0.000
       0.000  0.000  0.000  0.000  0.000  0.000  0.000
       0.000  0.000  0.000  0.000  0.000  0.000  0.000
       0.000  0.000  0.000  0.000  0.000  0.000  0.000
       0.000  0.000  0.000  0.000  0.000  0.000  0.000
     --------------------- ATOM   54 ----------------------
     Tr[ns] (up, down, total) =   2.00000  0.00000  2.00000
     Atomic magnetic moment =   2.00000
     SPIN  1
     eigenvalues:
       0.286  0.286  0.286  0.286  0.286  0.286  0.286
     eigenvectors (columns):
       1.000  0.000  0.000  0.000  0.000  0.000  0.000
       0.000  1.000  0.000  0.000  0.000  0.000  0.000
       0.000  0.000  1.000  0.000  0.000  0.000  0.000
       0.000  0.000  0.000  1.000  0.000  0.000  0.000
       0.000  0.000  0.000  0.000  1.000  0.000  0.000
       0.000  0.000  0.000  0.000  0.000  1.000  0.000
       0.000  0.000  0.000  0.000  0.000  0.000  1.000
     occupation matrix ns (before diag.):
       0.286  0.000  0.000  0.000  0.000  0.000  0.000
       0.000  0.286  0.000  0.000  0.000  0.000  0.000
       0.000  0.000  0.286  0.000  0.000  0.000  0.000
       0.000  0.000  0.000  0.286  0.000  0.000  0.000
       0.000  0.000  0.000  0.000  0.286  0.000  0.000
       0.000  0.000  0.000  0.000  0.000  0.286  0.000
       0.000  0.000  0.000  0.000  0.000  0.000  0.286
     SPIN  2
     eigenvalues:
       0.000  0.000  0.000  0.000  0.000  0.000  0.000
     eigenvectors (columns):
       1.000  0.000  0.000  0.000  0.000  0.000  0.000
       0.000  1.000  0.000  0.000  0.000  0.000  0.000
       0.000  0.000  1.000  0.000  0.000  0.000  0.000
       0.000  0.000  0.000  1.000  0.000  0.000  0.000
       0.000  0.000  0.000  0.000  1.000  0.000  0.000
       0.000  0.000  0.000  0.000  0.000  1.000  0.000
       0.000  0.000  0.000  0.000  0.000  0.000  1.000
     occupation matrix ns (before diag.):
       0.000  0.000  0.000  0.000  0.000  0.000  0.000
       0.000  0.000  0.000  0.000  0.000  0.000  0.000
       0.000  0.000  0.000  0.000  0.000  0.000  0.000
       0.000  0.000  0.000  0.000  0.000  0.000  0.000
       0.000  0.000  0.000  0.000  0.000  0.000  0.000
       0.000  0.000  0.000  0.000  0.000  0.000  0.000
       0.000  0.000  0.000  0.000  0.000  0.000  0.000
     --------------------- ATOM   55 ----------------------
     Tr[ns] (up, down, total) =   2.00000  0.00000  2.00000
     Atomic magnetic moment =   2.00000
     SPIN  1
     eigenvalues:
       0.286  0.286  0.286  0.286  0.286  0.286  0.286
     eigenvectors (columns):
       1.000  0.000  0.000  0.000  0.000  0.000  0.000
       0.000  1.000  0.000  0.000  0.000  0.000  0.000
       0.000  0.000  1.000  0.000  0.000  0.000  0.000
       0.000  0.000  0.000  1.000  0.000  0.000  0.000
       0.000  0.000  0.000  0.000  1.000  0.000  0.000
       0.000  0.000  0.000  0.000  0.000  1.000  0.000
       0.000  0.000  0.000  0.000  0.000  0.000  1.000
     occupation matrix ns (before diag.):
       0.286  0.000  0.000  0.000  0.000  0.000  0.000
       0.000  0.286  0.000  0.000  0.000  0.000  0.000
       0.000  0.000  0.286  0.000  0.000  0.000  0.000
       0.000  0.000  0.000  0.286  0.000  0.000  0.000
       0.000  0.000  0.000  0.000  0.286  0.000  0.000
       0.000  0.000  0.000  0.000  0.000  0.286  0.000
       0.000  0.000  0.000  0.000  0.000  0.000  0.286
     SPIN  2
     eigenvalues:
       0.000  0.000  0.000  0.000  0.000  0.000  0.000
     eigenvectors (columns):
       1.000  0.000  0.000  0.000  0.000  0.000  0.000
       0.000  1.000  0.000  0.000  0.000  0.000  0.000
       0.000  0.000  1.000  0.000  0.000  0.000  0.000
       0.000  0.000  0.000  1.000  0.000  0.000  0.000
       0.000  0.000  0.000  0.000  1.000  0.000  0.000
       0.000  0.000  0.000  0.000  0.000  1.000  0.000
       0.000  0.000  0.000  0.000  0.000  0.000  1.000
     occupation matrix ns (before diag.):
       0.000  0.000  0.000  0.000  0.000  0.000  0.000
       0.000  0.000  0.000  0.000  0.000  0.000  0.000
       0.000  0.000  0.000  0.000  0.000  0.000  0.000
       0.000  0.000  0.000  0.000  0.000  0.000  0.000
       0.000  0.000  0.000  0.000  0.000  0.000  0.000
       0.000  0.000  0.000  0.000  0.000  0.000  0.000
       0.000  0.000  0.000  0.000  0.000  0.000  0.000
     --------------------- ATOM   56 ----------------------
     Tr[ns] (up, down, total) =   2.00000  0.00000  2.00000
     Atomic magnetic moment =   2.00000
     SPIN  1
     eigenvalues:
       0.286  0.286  0.286  0.286  0.286  0.286  0.286
     eigenvectors (columns):
       1.000  0.000  0.000  0.000  0.000  0.000  0.000
       0.000  1.000  0.000  0.000  0.000  0.000  0.000
       0.000  0.000  1.000  0.000  0.000  0.000  0.000
       0.000  0.000  0.000  1.000  0.000  0.000  0.000
       0.000  0.000  0.000  0.000  1.000  0.000  0.000
       0.000  0.000  0.000  0.000  0.000  1.000  0.000
       0.000  0.000  0.000  0.000  0.000  0.000  1.000
     occupation matrix ns (before diag.):
       0.286  0.000  0.000  0.000  0.000  0.000  0.000
       0.000  0.286  0.000  0.000  0.000  0.000  0.000
       0.000  0.000  0.286  0.000  0.000  0.000  0.000
       0.000  0.000  0.000  0.286  0.000  0.000  0.000
       0.000  0.000  0.000  0.000  0.286  0.000  0.000
       0.000  0.000  0.000  0.000  0.000  0.286  0.000
       0.000  0.000  0.000  0.000  0.000  0.000  0.286
     SPIN  2
     eigenvalues:
       0.000  0.000  0.000  0.000  0.000  0.000  0.000
     eigenvectors (columns):
       1.000  0.000  0.000  0.000  0.000  0.000  0.000
       0.000  1.000  0.000  0.000  0.000  0.000  0.000
       0.000  0.000  1.000  0.000  0.000  0.000  0.000
       0.000  0.000  0.000  1.000  0.000  0.000  0.000
       0.000  0.000  0.000  0.000  1.000  0.000  0.000
       0.000  0.000  0.000  0.000  0.000  1.000  0.000
       0.000  0.000  0.000  0.000  0.000  0.000  1.000
     occupation matrix ns (before diag.):
       0.000  0.000  0.000  0.000  0.000  0.000  0.000
       0.000  0.000  0.000  0.000  0.000  0.000  0.000
       0.000  0.000  0.000  0.000  0.000  0.000  0.000
       0.000  0.000  0.000  0.000  0.000  0.000  0.000
       0.000  0.000  0.000  0.000  0.000  0.000  0.000
       0.000  0.000  0.000  0.000  0.000  0.000  0.000
       0.000  0.000  0.000  0.000  0.000  0.000  0.000
     --------------------- ATOM   57 ----------------------
     Tr[ns] (up, down, total) =   2.00000  0.00000  2.00000
     Atomic magnetic moment =   2.00000
     SPIN  1
     eigenvalues:
       0.286  0.286  0.286  0.286  0.286  0.286  0.286
     eigenvectors (columns):
       1.000  0.000  0.000  0.000  0.000  0.000  0.000
       0.000  1.000  0.000  0.000  0.000  0.000  0.000
       0.000  0.000  1.000  0.000  0.000  0.000  0.000
       0.000  0.000  0.000  1.000  0.000  0.000  0.000
       0.000  0.000  0.000  0.000  1.000  0.000  0.000
       0.000  0.000  0.000  0.000  0.000  1.000  0.000
       0.000  0.000  0.000  0.000  0.000  0.000  1.000
     occupation matrix ns (before diag.):
       0.286  0.000  0.000  0.000  0.000  0.000  0.000
       0.000  0.286  0.000  0.000  0.000  0.000  0.000
       0.000  0.000  0.286  0.000  0.000  0.000  0.000
       0.000  0.000  0.000  0.286  0.000  0.000  0.000
       0.000  0.000  0.000  0.000  0.286  0.000  0.000
       0.000  0.000  0.000  0.000  0.000  0.286  0.000
       0.000  0.000  0.000  0.000  0.000  0.000  0.286
     SPIN  2
     eigenvalues:
       0.000  0.000  0.000  0.000  0.000  0.000  0.000
     eigenvectors (columns):
       1.000  0.000  0.000  0.000  0.000  0.000  0.000
       0.000  1.000  0.000  0.000  0.000  0.000  0.000
       0.000  0.000  1.000  0.000  0.000  0.000  0.000
       0.000  0.000  0.000  1.000  0.000  0.000  0.000
       0.000  0.000  0.000  0.000  1.000  0.000  0.000
       0.000  0.000  0.000  0.000  0.000  1.000  0.000
       0.000  0.000  0.000  0.000  0.000  0.000  1.000
     occupation matrix ns (before diag.):
       0.000  0.000  0.000  0.000  0.000  0.000  0.000
       0.000  0.000  0.000  0.000  0.000  0.000  0.000
       0.000  0.000  0.000  0.000  0.000  0.000  0.000
       0.000  0.000  0.000  0.000  0.000  0.000  0.000
       0.000  0.000  0.000  0.000  0.000  0.000  0.000
       0.000  0.000  0.000  0.000  0.000  0.000  0.000
       0.000  0.000  0.000  0.000  0.000  0.000  0.000
     --------------------- ATOM   58 ----------------------
     Tr[ns] (up, down, total) =   2.00000  0.00000  2.00000
     Atomic magnetic moment =   2.00000
     SPIN  1
     eigenvalues:
       0.286  0.286  0.286  0.286  0.286  0.286  0.286
     eigenvectors (columns):
       1.000  0.000  0.000  0.000  0.000  0.000  0.000
       0.000  1.000  0.000  0.000  0.000  0.000  0.000
       0.000  0.000  1.000  0.000  0.000  0.000  0.000
       0.000  0.000  0.000  1.000  0.000  0.000  0.000
       0.000  0.000  0.000  0.000  1.000  0.000  0.000
       0.000  0.000  0.000  0.000  0.000  1.000  0.000
       0.000  0.000  0.000  0.000  0.000  0.000  1.000
     occupation matrix ns (before diag.):
       0.286  0.000  0.000  0.000  0.000  0.000  0.000
       0.000  0.286  0.000  0.000  0.000  0.000  0.000
       0.000  0.000  0.286  0.000  0.000  0.000  0.000
       0.000  0.000  0.000  0.286  0.000  0.000  0.000
       0.000  0.000  0.000  0.000  0.286  0.000  0.000
       0.000  0.000  0.000  0.000  0.000  0.286  0.000
       0.000  0.000  0.000  0.000  0.000  0.000  0.286
     SPIN  2
     eigenvalues:
       0.000  0.000  0.000  0.000  0.000  0.000  0.000
     eigenvectors (columns):
       1.000  0.000  0.000  0.000  0.000  0.000  0.000
       0.000  1.000  0.000  0.000  0.000  0.000  0.000
       0.000  0.000  1.000  0.000  0.000  0.000  0.000
       0.000  0.000  0.000  1.000  0.000  0.000  0.000
       0.000  0.000  0.000  0.000  1.000  0.000  0.000
       0.000  0.000  0.000  0.000  0.000  1.000  0.000
       0.000  0.000  0.000  0.000  0.000  0.000  1.000
     occupation matrix ns (before diag.):
       0.000  0.000  0.000  0.000  0.000  0.000  0.000
       0.000  0.000  0.000  0.000  0.000  0.000  0.000
       0.000  0.000  0.000  0.000  0.000  0.000  0.000
       0.000  0.000  0.000  0.000  0.000  0.000  0.000
       0.000  0.000  0.000  0.000  0.000  0.000  0.000
       0.000  0.000  0.000  0.000  0.000  0.000  0.000
       0.000  0.000  0.000  0.000  0.000  0.000  0.000
     --------------------- ATOM   59 ----------------------
     Tr[ns] (up, down, total) =   2.00000  0.00000  2.00000
     Atomic magnetic moment =   2.00000
     SPIN  1
     eigenvalues:
       0.286  0.286  0.286  0.286  0.286  0.286  0.286
     eigenvectors (columns):
       1.000  0.000  0.000  0.000  0.000  0.000  0.000
       0.000  1.000  0.000  0.000  0.000  0.000  0.000
       0.000  0.000  1.000  0.000  0.000  0.000  0.000
       0.000  0.000  0.000  1.000  0.000  0.000  0.000
       0.000  0.000  0.000  0.000  1.000  0.000  0.000
       0.000  0.000  0.000  0.000  0.000  1.000  0.000
       0.000  0.000  0.000  0.000  0.000  0.000  1.000
     occupation matrix ns (before diag.):
       0.286  0.000  0.000  0.000  0.000  0.000  0.000
       0.000  0.286  0.000  0.000  0.000  0.000  0.000
       0.000  0.000  0.286  0.000  0.000  0.000  0.000
       0.000  0.000  0.000  0.286  0.000  0.000  0.000
       0.000  0.000  0.000  0.000  0.286  0.000  0.000
       0.000  0.000  0.000  0.000  0.000  0.286  0.000
       0.000  0.000  0.000  0.000  0.000  0.000  0.286
     SPIN  2
     eigenvalues:
       0.000  0.000  0.000  0.000  0.000  0.000  0.000
     eigenvectors (columns):
       1.000  0.000  0.000  0.000  0.000  0.000  0.000
       0.000  1.000  0.000  0.000  0.000  0.000  0.000
       0.000  0.000  1.000  0.000  0.000  0.000  0.000
       0.000  0.000  0.000  1.000  0.000  0.000  0.000
       0.000  0.000  0.000  0.000  1.000  0.000  0.000
       0.000  0.000  0.000  0.000  0.000  1.000  0.000
       0.000  0.000  0.000  0.000  0.000  0.000  1.000
     occupation matrix ns (before diag.):
       0.000  0.000  0.000  0.000  0.000  0.000  0.000
       0.000  0.000  0.000  0.000  0.000  0.000  0.000
       0.000  0.000  0.000  0.000  0.000  0.000  0.000
       0.000  0.000  0.000  0.000  0.000  0.000  0.000
       0.000  0.000  0.000  0.000  0.000  0.000  0.000
       0.000  0.000  0.000  0.000  0.000  0.000  0.000
       0.000  0.000  0.000  0.000  0.000  0.000  0.000
     --------------------- ATOM   60 ----------------------
     Tr[ns] (up, down, total) =   2.00000  0.00000  2.00000
     Atomic magnetic moment =   2.00000
     SPIN  1
     eigenvalues:
       0.286  0.286  0.286  0.286  0.286  0.286  0.286
     eigenvectors (columns):
       1.000  0.000  0.000  0.000  0.000  0.000  0.000
       0.000  1.000  0.000  0.000  0.000  0.000  0.000
       0.000  0.000  1.000  0.000  0.000  0.000  0.000
       0.000  0.000  0.000  1.000  0.000  0.000  0.000
       0.000  0.000  0.000  0.000  1.000  0.000  0.000
       0.000  0.000  0.000  0.000  0.000  1.000  0.000
       0.000  0.000  0.000  0.000  0.000  0.000  1.000
     occupation matrix ns (before diag.):
       0.286  0.000  0.000  0.000  0.000  0.000  0.000
       0.000  0.286  0.000  0.000  0.000  0.000  0.000
       0.000  0.000  0.286  0.000  0.000  0.000  0.000
       0.000  0.000  0.000  0.286  0.000  0.000  0.000
       0.000  0.000  0.000  0.000  0.286  0.000  0.000
       0.000  0.000  0.000  0.000  0.000  0.286  0.000
       0.000  0.000  0.000  0.000  0.000  0.000  0.286
     SPIN  2
     eigenvalues:
       0.000  0.000  0.000  0.000  0.000  0.000  0.000
     eigenvectors (columns):
       1.000  0.000  0.000  0.000  0.000  0.000  0.000
       0.000  1.000  0.000  0.000  0.000  0.000  0.000
       0.000  0.000  1.000  0.000  0.000  0.000  0.000
       0.000  0.000  0.000  1.000  0.000  0.000  0.000
       0.000  0.000  0.000  0.000  1.000  0.000  0.000
       0.000  0.000  0.000  0.000  0.000  1.000  0.000
       0.000  0.000  0.000  0.000  0.000  0.000  1.000
     occupation matrix ns (before diag.):
       0.000  0.000  0.000  0.000  0.000  0.000  0.000
       0.000  0.000  0.000  0.000  0.000  0.000  0.000
       0.000  0.000  0.000  0.000  0.000  0.000  0.000
       0.000  0.000  0.000  0.000  0.000  0.000  0.000
       0.000  0.000  0.000  0.000  0.000  0.000  0.000
       0.000  0.000  0.000  0.000  0.000  0.000  0.000
       0.000  0.000  0.000  0.000  0.000  0.000  0.000
     --------------------- ATOM   61 ----------------------
     Tr[ns] (up, down, total) =   2.00000  0.00000  2.00000
     Atomic magnetic moment =   2.00000
     SPIN  1
     eigenvalues:
       0.286  0.286  0.286  0.286  0.286  0.286  0.286
     eigenvectors (columns):
       1.000  0.000  0.000  0.000  0.000  0.000  0.000
       0.000  1.000  0.000  0.000  0.000  0.000  0.000
       0.000  0.000  1.000  0.000  0.000  0.000  0.000
       0.000  0.000  0.000  1.000  0.000  0.000  0.000
       0.000  0.000  0.000  0.000  1.000  0.000  0.000
       0.000  0.000  0.000  0.000  0.000  1.000  0.000
       0.000  0.000  0.000  0.000  0.000  0.000  1.000
     occupation matrix ns (before diag.):
       0.286  0.000  0.000  0.000  0.000  0.000  0.000
       0.000  0.286  0.000  0.000  0.000  0.000  0.000
       0.000  0.000  0.286  0.000  0.000  0.000  0.000
[...]
     atom   42 type  2   force =     0.00008324    0.00013039   -0.01429733
     atom   43 type  2   force =     0.00090643    0.00308508   -0.01997415
     atom   44 type  2   force =     0.00080949    0.00001399   -0.01426869
     atom   45 type  2   force =     0.00029108    0.00003441   -0.01449924
     atom   46 type  2   force =     0.00111560   -0.00346636   -0.01873539
     atom   47 type  2   force =    -0.00048978    0.00116623   -0.01423668
     atom   48 type  2   force =     0.00060730    0.00160594   -0.01688424
     atom   49 type  2   force =    -0.00026737    0.00031124   -0.01344692
     atom   50 type  2   force =     0.00024104    0.00039739   -0.01355281
     atom   51 type  2   force =     0.00097299   -0.00148091   -0.01752978
     atom   52 type  2   force =    -0.00075921   -0.00067504   -0.01471893
     atom   53 type  2   force =     0.00030042    0.00099771   -0.01518100
     atom   54 type  2   force =     0.00063484    0.00030087   -0.01481458
     atom   55 type  2   force =     0.00036539    0.00000447   -0.01498121
     atom   56 type  2   force =     0.00084846   -0.00087536   -0.01414973
     atom   57 type  2   force =    -0.00041533   -0.00002421   -0.01536077
     atom   58 type  2   force =     0.00021050    0.00033872   -0.01440915
     atom   59 type  2   force =     0.00089559   -0.00036848   -0.01434197
     atom   60 type  2   force =    -0.00061695    0.00031292   -0.01347121
     atom   61 type  2   force =    -0.00004480   -0.00027409   -0.01407839
     atom   62 type  2   force =    -0.00122338   -0.00068521   -0.01407408
     atom   63 type  2   force =    -0.00031332    0.00013553   -0.01462165
     atom   64 type  2   force =     0.00046998   -0.00025803   -0.01404192
     atom   65 type  2   force =    -0.00026215    0.00175099   -0.01566948
     atom   66 type  2   force =    -0.00070328   -0.00104538   -0.01385182
     atom   67 type  2   force =    -0.00021422    0.00072788   -0.01402522
     atom   68 type  2   force =     0.00147007   -0.00039645   -0.01702073
     atom   69 type  2   force =    -0.00011588   -0.00104632   -0.01463471
     atom   70 type  2   force =    -0.00064910    0.00007865   -0.01443204
     atom   71 type  2   force =    -0.00068634    0.00007046   -0.01424769
     atom   72 type  2   force =     0.00005042   -0.00183400   -0.01347639
     atom   73 type  1   force =     0.00094356   -0.00073526    0.01099997
     atom   74 type  1   force =    -0.00057686    0.00039834    0.01358864
     atom   75 type  1   force =    -0.00212314    0.00092347    0.00951615
     atom   76 type  1   force =     0.00081262   -0.00205321    0.01128603
     atom   77 type  1   force =     0.00055907   -0.00036146    0.01291067
     atom   78 type  1   force =     0.00000209   -0.00046205    0.00956309
     atom   79 type  1   force =     0.00012433    0.00110329    0.01203562
     atom   80 type  1   force =     0.00417983   -0.00181503    0.01426900
     atom   81 type  1   force =     0.00167876    0.00038511    0.01270713
     atom   82 type  1   force =     0.00017735   -0.00025057    0.01211047
     atom   83 type  1   force =    -0.00089071   -0.00034514    0.01381159
     atom   84 type  1   force =    -0.00061990   -0.00192256    0.01426263
     atom   85 type  1   force =    -0.00015786    0.00070407    0.01203856
     atom   86 type  1   force =     0.00022902    0.00150567    0.00976177
     atom   87 type  1   force =     0.00086912    0.00017823    0.01309743
     atom   88 type  1   force =    -0.00332743   -0.00182114    0.01465412
     atom   89 type  1   force =    -0.00008419    0.00022353    0.01260717
     atom   90 type  1   force =     0.00083618    0.00039567    0.01318225
     atom   91 type  1   force =    -0.00193848    0.00067114    0.01141472
     atom   92 type  1   force =    -0.00004424    0.00035567    0.01314720
     atom   93 type  1   force =     0.00046982    0.00034977    0.01283497
     atom   94 type  1   force =     0.00025574   -0.00120606    0.01423024
     atom   95 type  1   force =     0.00003427   -0.00090981    0.01315985
     atom   96 type  1   force =    -0.00044141    0.00027286    0.01315850
     atom   97 type  1   force =    -0.00055741   -0.00053738    0.01187274
     atom   98 type  1   force =     0.00111484    0.00109596    0.01169563
     atom   99 type  1   force =    -0.00067247   -0.00023269    0.01190426
     atom  100 type  1   force =     0.00092405    0.00074908    0.01258026
     atom  101 type  1   force =    -0.00027407   -0.00038191    0.01168223
     atom  102 type  1   force =    -0.00134139   -0.00133317    0.01269448
     atom  103 type  1   force =     0.00129335    0.00044114    0.01039896
     atom  104 type  1   force =     0.00003959    0.00024558    0.01244896
     atom  105 type  1   force =     0.00028757   -0.00083862    0.01213089
     atom  106 type  1   force =    -0.00065023   -0.00066435    0.01280956
     atom  107 type  1   force =    -0.00061610    0.00049258    0.01098959
     atom  108 type  1   force =    -0.00050176   -0.00022336    0.01228418
     atom  109 type  1   force =    -0.00008320   -0.00030657   -0.00225176
     atom  110 type  1   force =    -0.00185614   -0.00085518   -0.00146441
     atom  111 type  1   force =    -0.00020844    0.00035035   -0.00216930
     atom  112 type  1   force =     0.00063221    0.00123434   -0.00085799
     atom  113 type  1   force =     0.00183479   -0.00203981    0.00098071
     atom  114 type  1   force =    -0.00053057   -0.00060613    0.00151839
     atom  115 type  1   force =     0.00110621   -0.00077955    0.00060515
     atom  116 type  1   force =     0.00176069    0.00094906   -0.00044317
     atom  117 type  1   force =    -0.00045983   -0.00138139   -0.00031528
     atom  118 type  1   force =    -0.00056662   -0.00143527    0.00169377
     atom  119 type  1   force =    -0.00060213    0.00040075   -0.00083066
     atom  120 type  1   force =     0.00492826   -0.00090415   -0.00150164
     atom  121 type  1   force =     0.00009358    0.00112943   -0.00466455
     atom  122 type  1   force =     0.00012648   -0.00053087   -0.00281499
     atom  123 type  1   force =    -0.00203433    0.00010673    0.00073631
     atom  124 type  1   force =    -0.00023385    0.00021928   -0.00064394
     atom  125 type  1   force =     0.00049975    0.00194710   -0.00124624
     atom  126 type  1   force =     0.00459680    0.00307837   -0.00235846
     atom  127 type  1   force =     0.00321986    0.00088915   -0.00125726
     atom  128 type  1   force =    -0.00046182   -0.00108087   -0.00119453
     atom  129 type  1   force =    -0.00141247   -0.00098226   -0.00110843
     atom  130 type  1   force =     0.00174920    0.00415509   -0.00007256
     atom  131 type  1   force =    -0.00388380   -0.00050213   -0.00139567
     atom  132 type  1   force =     0.00159012    0.00114899   -0.00179974
     atom  133 type  1   force =    -0.00329937   -0.00045429    0.00011900
     atom  134 type  1   force =    -0.00107762    0.00000359   -0.00013888
     atom  135 type  1   force =     0.00046538   -0.00057771   -0.00033343
     atom  136 type  1   force =     0.00048567   -0.00129193   -0.00087999
     atom  137 type  1   force =     0.00100806   -0.00186023   -0.00066065
     atom  138 type  1   force =     0.00140396    0.00085583   -0.00013384
     atom  139 type  1   force =    -0.00159473   -0.00177746    0.00043859
     atom  140 type  1   force =    -0.00108135   -0.00070363   -0.00039551
     atom  141 type  1   force =    -0.00192691   -0.00270269    0.00057278
     atom  142 type  1   force =    -0.00086938    0.00086826    0.00252986
     atom  143 type  1   force =    -0.00024185   -0.00001663    0.00013656
     atom  144 type  1   force =     0.00123285   -0.00061064   -0.00100684
     atom  145 type  2   force =    -0.00379644    0.00003907   -0.00670726
     atom  146 type  2   force =    -0.00037727    0.00334172   -0.00254976
     atom  147 type  2   force =     0.00086648    0.00038487   -0.00005830
     atom  148 type  2   force =     0.00106133    0.00068068    0.00331659
     atom  149 type  2   force =     0.00118977    0.00039549    0.00092535
     atom  150 type  2   force =    -0.00125869   -0.00502458   -0.00292562
     atom  151 type  2   force =     0.00206081    0.00315520    0.00192687
     atom  152 type  2   force =    -0.00325153    0.00070648    0.00237217
     atom  153 type  2   force =    -0.00085476    0.00308359   -0.00001633
     atom  154 type  2   force =     0.00056926   -0.00469459   -0.00200410
     atom  155 type  2   force =    -0.00007091   -0.00152459    0.00055768
     atom  156 type  2   force =    -0.00040934   -0.00106019    0.00150877
     atom  157 type  2   force =    -0.00431369   -0.00296237   -0.00498668
     atom  158 type  2   force =     0.00061740   -0.00025689    0.00186075
     atom  159 type  2   force =     0.00121575   -0.00145457    0.00113698
     atom  160 type  2   force =     0.00036994   -0.00255669    0.00085972
     atom  161 type  2   force =    -0.00007740    0.00214701   -0.00169739
     atom  162 type  2   force =    -0.00142598    0.00592837   -0.00231825
     atom  163 type  2   force =    -0.00069992    0.00103546    0.00282323
     atom  164 type  2   force =     0.00118189    0.00095576   -0.00116323
     atom  165 type  2   force =     0.00016975    0.00134217    0.00311957
     atom  166 type  2   force =    -0.00125358    0.00076397    0.00049085
     atom  167 type  2   force =     0.00352234   -0.00033623   -0.00393682
     atom  168 type  2   force =    -0.00144987    0.00200988    0.00199642
     atom  169 type  2   force =    -0.00152706    0.00075833   -0.00014181
     atom  170 type  2   force =    -0.00173537    0.00742852   -0.00156018
     atom  171 type  2   force =    -0.00087678    0.00086810    0.00153564
     atom  172 type  2   force =    -0.00133887   -0.00142209    0.00059591
     atom  173 type  2   force =     0.00107058   -0.00004619    0.00120600
     atom  174 type  2   force =     0.00690046   -0.00645810   -0.00229327
     atom  175 type  2   force =    -0.00083634   -0.00032117   -0.00084262
     atom  176 type  2   force =    -0.00084213    0.00184097    0.00309631
     atom  177 type  2   force =     0.00164376   -0.00223961   -0.00109857
     atom  178 type  2   force =     0.00687970    0.00346979   -0.00172853
     atom  179 type  2   force =     0.00037323    0.00031546    0.00055396
     atom  180 type  2   force =     0.00060047   -0.00149836    0.00106422
     atom  181 type  1   force =    -0.00031008   -0.00286804    0.00470001
     atom  182 type  1   force =     0.00059550   -0.00064933    0.00278399
     atom  183 type  1   force =     0.00046848   -0.00001107    0.00249285
     atom  184 type  1   force =     0.00087392   -0.00066412    0.00312996
     atom  185 type  1   force =     0.00084556    0.00320867    0.00792291
     atom  186 type  1   force =     0.00046871    0.00013249    0.00295955
     atom  187 type  1   force =    -0.00074317    0.00016555    0.00295706
     atom  188 type  1   force =     0.00015294   -0.00024676    0.00389024
     atom  189 type  1   force =     0.00001177    0.00164471    0.00204900
     atom  190 type  1   force =    -0.00365097   -0.00367626    0.00424917
     atom  191 type  1   force =    -0.00153435   -0.00062902    0.00263334
     atom  192 type  1   force =     0.00134507    0.00228008    0.00098254
     atom  193 type  1   force =    -0.00157942    0.00083298    0.00563895
     atom  194 type  1   force =     0.00046512   -0.00320475    0.00466607
     atom  195 type  1   force =     0.00052170   -0.00014563    0.00410179
     atom  196 type  1   force =     0.00107688    0.00093708    0.00307461
     atom  197 type  1   force =    -0.00125422    0.00162406    0.00260531
     atom  198 type  1   force =    -0.00300655    0.00196439    0.00399544
     atom  199 type  1   force =     0.00101882    0.00112328    0.00382709
     atom  200 type  1   force =     0.00160761    0.00154639    0.00273791
     atom  201 type  1   force =     0.00024221   -0.00235373    0.00243376
     atom  202 type  1   force =     0.00092802   -0.00056312    0.00392193
     atom  203 type  1   force =    -0.00068821    0.00065080    0.00399180
     atom  204 type  1   force =     0.00007522   -0.00064690    0.00271958
     atom  205 type  1   force =     0.00104259   -0.00119172    0.00485753
     atom  206 type  1   force =     0.00058587    0.00057751    0.00282939
     atom  207 type  1   force =     0.00187554    0.00077640    0.00328805
     atom  208 type  1   force =    -0.00019129   -0.00007618    0.00299271
     atom  209 type  1   force =    -0.00134236   -0.00034190    0.00335883
     atom  210 type  1   force =    -0.00153425   -0.00287528   -0.00103763
     atom  211 type  1   force =    -0.00058865   -0.00128187    0.00267584
     atom  212 type  1   force =     0.00022339   -0.00029365    0.00095948
     atom  213 type  1   force =    -0.00215190   -0.00167856    0.00285112
     atom  214 type  1   force =    -0.00063588    0.00271002    0.00069115
     atom  215 type  1   force =    -0.00329381   -0.00093010    0.00167480
     atom  216 type  1   force =     0.00074178    0.00027640    0.00198966
     atom  217 type  3   force =     0.00852769    0.00761666   -0.00640805
     atom  218 type  4   force =    -0.00840895   -0.00117837    0.00677367
     atom  219 type  5   force =    -0.00563400    0.00817786   -0.01787883
     atom  220 type  4   force =    -0.00400309    0.00169262    0.01179749
     atom  221 type  5   force =     0.00005890    0.00333430   -0.00664864
     atom  222 type  5   force =     0.01993529    0.00919443   -0.00929268
     atom  223 type  1   force =    -0.01157669   -0.00327780    0.00883702
     atom  224 type  4   force =    -0.00874503   -0.00153145    0.00898549
     atom  225 type  5   force =     0.00540403   -0.02450765    0.00289995
     atom  226 type  4   force =    -0.00225976    0.01576552   -0.00201053
     atom  227 type  4   force =    -0.00189986    0.00929938    0.00637481
     atom  228 type  5   force =     0.00024266   -0.01416180   -0.00517562
     atom  229 type  3   force =    -0.00174593    0.00016967   -0.00475200
     atom  230 type  3   force =    -0.00106960   -0.00560424   -0.00013705
     atom  231 type  3   force =     0.00376866    0.00378985   -0.00407377
     atom  232 type  3   force =     0.00454053    0.00159629   -0.00007065
     atom  233 type  3   force =    -0.00276067   -0.00728645   -0.00046311
     atom  234 type  4   force =     0.00563781    0.01504413    0.00509209
     atom  235 type  5   force =    -0.03210802   -0.01933209   -0.00162730
     atom  236 type  1   force =     0.01701391    0.00856999    0.00541796
     atom  237 type  4   force =    -0.00405765    0.00110968    0.00370020
     atom  238 type  5   force =     0.00422571    0.00477999    0.00222662
     atom  239 type  4   force =     0.00053308    0.00703296    0.00007293
     atom  240 type  5   force =     0.00573474    0.00073109    0.00282576
     atom  241 type  5   force =     0.00169101   -0.01305344   -0.00171002
     atom  242 type  3   force =     0.00250814   -0.00099866    0.00121370
     atom  243 type  3   force =     0.00559801   -0.00131316   -0.00184151
     atom  244 type  3   force =     0.00865552   -0.00350523   -0.00188316
     atom  245 type  3   force =    -0.00776241   -0.00255485    0.00708141
     atom  246 type  4   force =     0.00946848   -0.02696640    0.04555088
     atom  247 type  5   force =    -0.00540492    0.04432176   -0.04519267
     atom  248 type  4   force =     0.00855091    0.02087532    0.01714560
     atom  249 type  5   force =    -0.00113263   -0.00378626   -0.00458160
     atom  250 type  4   force =    -0.01235304    0.01350668    0.00877889
     atom  251 type  5   force =     0.00163240   -0.00110777   -0.00753722
     atom  252 type  6   force =     0.00791240   -0.02625424   -0.00988061
     atom  253 type  5   force =    -0.03709769    0.02428587   -0.00023468
     atom  254 type  4   force =     0.03576350   -0.02385572    0.00879439
     atom  255 type  5   force =     0.00920958    0.01815501    0.01094021
     atom  256 type  4   force =    -0.01662277   -0.02421076   -0.00563871
     atom  257 type  5   force =    -0.00493005   -0.01423461    0.04173586
     atom  258 type  4   force =     0.00212367    0.00594253   -0.01701247

     Total force =     0.155589     Total SCF correction =     0.000203


     Computing stress (Cartesian axis) and pressure


     negative rho (up, down):  3.859E-02 9.812E-02
          total   stress  (Ry/bohr**3)                   (kbar)     P=      -17.31
  -0.00016386  -0.00000132  -0.00000116          -24.11       -0.19       -0.17
  -0.00000132  -0.00016427   0.00000044           -0.19      -24.16        0.06
  -0.00000116   0.00000044  -0.00002496           -0.17        0.06       -3.67


     Writing all to output data dir ./out/aiida.save/
 
     init_run     :     45.72s CPU     47.05s WALL (       1 calls)
     electrons    :  10739.35s CPU  10945.88s WALL (       1 calls)
     forces       :     88.58s CPU     89.61s WALL (       1 calls)
     stress       :    521.53s CPU    522.81s WALL (       1 calls)

     Called by init_run:
     wfcinit      :     39.21s CPU     40.15s WALL (       1 calls)
     potinit      :      2.06s CPU      2.13s WALL (       1 calls)
     hinit0       :      1.08s CPU      1.13s WALL (       1 calls)

     Called by electrons:
     c_bands      :   8931.42s CPU   9059.50s WALL (     119 calls)
     sum_band     :   1486.30s CPU   1533.64s WALL (     119 calls)
     v_of_rho     :     49.77s CPU     52.60s WALL (     120 calls)
     newd         :     73.86s CPU     99.36s WALL (     120 calls)
     PAW_pot      :    155.57s CPU    156.86s WALL (     120 calls)
     mix_rho      :     32.80s CPU     33.53s WALL (     119 calls)

     Called by c_bands:
     init_us_2    :     14.92s CPU     14.96s WALL (     488 calls)
     init_us_2:cp :     14.91s CPU     14.96s WALL (     488 calls)
     regterg      :   8848.76s CPU   8956.76s WALL (     239 calls)

     Called by *egterg:
     rdiaghg      :    579.44s CPU    583.88s WALL (     740 calls)
     h_psi        :   5468.34s CPU   5518.38s WALL (     742 calls)
     s_psi        :    468.55s CPU    493.45s WALL (     748 calls)
     g_psi        :      4.81s CPU      4.82s WALL (     501 calls)

     Called by h_psi:
     h_psi:calbec :    622.97s CPU    623.69s WALL (     742 calls)
     vloc_psi     :   3574.23s CPU   3591.35s WALL (     742 calls)
     add_vuspsi   :    466.17s CPU    494.51s WALL (     742 calls)
     vhpsi        :    792.41s CPU    796.26s WALL (     742 calls)

     General routines
     calbec       :   1323.69s CPU   1325.61s WALL (   26766 calls)
     fft          :     69.93s CPU     74.51s WALL (    2547 calls)
     ffts         :      4.26s CPU      4.43s WALL (     478 calls)
     fftw         :   3882.10s CPU   3901.21s WALL ( 1527540 calls)
     interpolate  :      8.43s CPU      9.01s WALL (     240 calls)
     davcio       :      0.00s CPU      0.02s WALL (       2 calls)
 
     Parallel routines
     fft_scatt_xy :    112.81s CPU    113.34s WALL ( 1530565 calls)
     fft_scatt_yz :   3353.97s CPU   3375.86s WALL ( 1530565 calls)

     Hubbard U routines
     new_ns       :     55.55s CPU     56.72s WALL (     119 calls)
     vhpsi        :    792.41s CPU    796.26s WALL (     742 calls)
     force_hub    :     74.56s CPU     74.99s WALL (       1 calls)
     stres_hub    :    192.66s CPU    193.42s WALL (       1 calls)
 
     PWSCF        :      3h10m CPU      3h14m WALL

 
   This run was terminated on:  17:33:54  18Dec2024            

=------------------------------------------------------------------------------=
   JOB DONE.
=------------------------------------------------------------------------------=
