
     Program PWSCF v.6.8 starts on  2Apr2025 at 16:54: 1 

     This program is part of the open-source Quantum ESPRESSO suite
     for quantum simulation of materials; please cite
         "P. Giannozzi et al., J. Phys.:Condens. Matter 21 395502 (2009);
         "P. Giannozzi et al., J. Phys.:Condens. Matter 29 465901 (2017);
         "P. Giannozzi et al., J. Chem. Phys. 152 154105 (2020);
          URL http://www.quantum-espresso.org", 
     in publications or presentations arising from this work. More details at
     http://www.quantum-espresso.org/quote

     Parallel version (MPI), running on    64 processors

     MPI processes distributed on     2 nodes
     R & G space division:  proc/nbgrp/npool/nimage =      64
     377949 MiB available memory on the printing compute node when the environment starts
 
     Reading input from pwscf.in

     Current dimensions of program PWSCF are:
     Max number of different atomic species (ntypx) = 10
     Max number of k-points (npk) =  40000
     Max angular momentum in pseudopotentials (lmaxx) =  4
     file C.pbe-n-kjpaw_psl.1.0.0.UPF: wavefunction(s)  2S 2P renormalized
     file Fe.pbe-spn-kjpaw_psl.0.2.1.UPF: wavefunction(s)  3D renormalized

     gamma-point specific algorithms are used

     Subspace diagonalization in iterative solution of the eigenvalue problem:
     one sub-group per band group will be used
     scalapack distributed-memory algorithm (size of sub-group:  8*  8 procs)

 
     Parallelization info
     --------------------
     sticks:   dense  smooth     PW     G-vecs:    dense   smooth      PW
     Min         660     330     81               142472    50370    6294
     Max         662     332     84               142498    50392    6308
     Sum       42361   21205   5305              9119279  3224425  403087
 
     Using Slab Decomposition
 


     bravais-lattice index     =            0
     lattice parameter (alat)  =      43.8349  a.u.
     unit-cell volume          =   94338.8593 (a.u.)^3
     number of atoms/cell      =           13
     number of atomic types    =            3
     number of electrons       =        70.00
     number of Kohn-Sham states=          200
     kinetic-energy cutoff     =      40.0000  Ry
     charge density cutoff     =     320.0000  Ry
     scf convergence threshold =      4.2E-08
     mixing beta               =       0.1000
     number of iterations used =            8  plain     mixing
     Exchange-correlation= SLA  PW   PBX  PBC
                           (   1   4   3   4   0   0   0)

     celldm(1)=  43.834893  celldm(2)=   0.000000  celldm(3)=   0.000000
     celldm(4)=   0.000000  celldm(5)=   0.000000  celldm(6)=   0.000000

     crystal axes: (cart. coord. in units of alat)
               a(1) = (   1.000000   0.000000   0.000000 )  
               a(2) = (  -0.500000   0.866025   0.000000 )  
               a(3) = (   0.000000   0.000000   1.293303 )  

     reciprocal axes: (cart. coord. in units 2 pi/alat)
               b(1) = (  1.000000  0.577350  0.000000 )  
               b(2) = (  0.000000  1.154701  0.000000 )  
               b(3) = (  0.000000  0.000000  0.773214 )  


     PseudoPot. # 1 for N  read from file:
     ./pseudo/N.pbe-n-radius_5.UPF
     MD5 check sum: 16739722b17309cd8fe442a2ace49922
     Pseudo is Ultrasoft + core correction, Zval =  5.0
     Generated using "atomic" code by A. Dal Corso  v.5.1
     Using radial grid of 1085 points,  4 beta functions with: 
                l(1) =   0
                l(2) =   0
                l(3) =   1
                l(4) =   1
     Q(r) pseudized with 0 coefficients 


     PseudoPot. # 2 for C  read from file:
     ./pseudo/C.pbe-n-kjpaw_psl.1.0.0.UPF
     MD5 check sum: 5d2aebdfa2cae82b50a7e79e9516da0f
     Pseudo is Projector augmented-wave + core cor, Zval =  4.0
     Generated using "atomic" code by A. Dal Corso  v.5.1
     Shape of augmentation charge: PSQ
     Using radial grid of 1073 points,  4 beta functions with: 
                l(1) =   0
                l(2) =   0
                l(3) =   1
                l(4) =   1
     Q(r) pseudized with 0 coefficients 


     PseudoPot. # 3 for Fe read from file:
     ./pseudo/Fe.pbe-spn-kjpaw_psl.0.2.1.UPF
     MD5 check sum: e86618425769142926afa95317d90200
     Pseudo is Projector augmented-wave + core cor, Zval = 16.0
     Generated using "atomic" code by A. Dal Corso  v.5.0.99 svn rev. 10869
     Shape of augmentation charge: PSQ
     Using radial grid of 1191 points,  6 beta functions with: 
                l(1) =   0
                l(2) =   0
                l(3) =   1
                l(4) =   1
                l(5) =   2
                l(6) =   2
     Q(r) pseudized with 0 coefficients 


     atomic species   valence    mass     pseudopotential
        N              5.00    14.00670     N ( 1.00)
        C              4.00    12.01070     C ( 1.00)
        Fe            16.00    55.84500     Fe( 1.00)

     Starting magnetic structure 
     atomic species   magnetization
        N            0.100
        C            0.417
        Fe           0.000

     No symmetry found



   Cartesian axes

     site n.     atom                  positions (alat units)
         1           N   tau(   1) = (   0.3406678   0.3813109   0.5416370  )
         2           C   tau(   2) = (   0.3328086   0.3607992   0.5874099  )
         3           N   tau(   3) = (   0.2473755   0.2306846   0.6214590  )
         4           C   tau(   4) = (   0.2761870   0.2701852   0.6351158  )
         5           N   tau(   5) = (   0.4398034   0.2585503   0.6598826  )
         6           C   tau(   6) = (   0.3974774   0.2861834   0.6632661  )
         7           Fe  tau(   7) = (   0.3235638   0.3361160   0.6731392  )
         8           C   tau(   8) = (   0.2497130   0.3859133   0.6835371  )
         9           N   tau(   9) = (   0.2075843   0.4138431   0.6866821  )
        10           C   tau(  10) = (   0.3709536   0.4017632   0.7117707  )
        11           N   tau(  11) = (   0.3994724   0.4416079   0.7250896  )
        12           C   tau(  12) = (   0.3143808   0.3117169   0.7589376  )
        13           N   tau(  13) = (   0.3060502   0.2907658   0.8044233  )

     number of k points=     1  Methfessel-Paxton smearing, width (Ry)=  0.0200
                       cart. coord. in units 2pi/alat
        k(    1) = (   0.0000000   0.0000000   0.0000000), wk =   1.0000000

     Dense  grid:  4559640 G-vectors     FFT dimensions: ( 250, 250, 324)

     Smooth grid:  1612213 G-vectors     FFT dimensions: ( 180, 180, 240)

     Estimated max dynamical RAM per process >     354.74 MB

     Estimated total dynamical RAM >      22.17 GB

     Check: negative core charge=   -0.000003
     Generating pointlists ...
     new r_m :   0.0209 (alat units)  0.9157 (a.u.) for type    1
     new r_m :   0.0209 (alat units)  0.9157 (a.u.) for type    2
     new r_m :   0.0370 (alat units)  1.6211 (a.u.) for type    3

     Initial potential from superposition of free atoms

     starting charge   69.99927, renormalised to   70.00000

     negative rho (up, down):  1.623E-02 1.640E-02
     Starting wfcs are   61 randomized atomic wfcs +  139 random wfcs
     Checking if some PAW data can be deallocated... 

     total cpu time spent up to now is        9.2 secs

     Self-consistent Calculation

     iteration #  1     ecut=    40.00 Ry     beta= 0.10
     Davidson diagonalization with overlap
     ethr =  1.00E-02,  avg # of iterations = 13.0

     negative rho (up, down):  1.830E-02 1.888E-02

     total cpu time spent up to now is       24.6 secs

     total energy              =    -558.87490711 Ry
     estimated scf accuracy    <       8.77570109 Ry

     total magnetization       =     1.82 Bohr mag/cell
     absolute magnetization    =     3.46 Bohr mag/cell

     iteration #  2     ecut=    40.00 Ry     beta= 0.10
     Davidson diagonalization with overlap
     ethr =  1.00E-02,  avg # of iterations =  1.0

     negative rho (up, down):  3.185E-02 2.516E-02

     total cpu time spent up to now is       30.2 secs

     total energy              =    -559.57347166 Ry
     estimated scf accuracy    <       6.19511615 Ry

     total magnetization       =     4.00 Bohr mag/cell
     absolute magnetization    =     4.59 Bohr mag/cell

     iteration #  3     ecut=    40.00 Ry     beta= 0.10
     Davidson diagonalization with overlap
     ethr =  8.85E-03,  avg # of iterations =  1.0

     negative rho (up, down):  8.722E-02 2.818E-02

     total cpu time spent up to now is       35.7 secs

     total energy              =    -559.63155715 Ry
     estimated scf accuracy    <       0.78667903 Ry

     total magnetization       =     4.14 Bohr mag/cell
     absolute magnetization    =     4.70 Bohr mag/cell

     iteration #  4     ecut=    40.00 Ry     beta= 0.10
     Davidson diagonalization with overlap
     ethr =  1.12E-03,  avg # of iterations =  1.0

     negative rho (up, down):  1.538E-01 3.306E-02

     total cpu time spent up to now is       41.3 secs

     total energy              =    -559.49428878 Ry
     estimated scf accuracy    <       1.89941759 Ry

     total magnetization       =     2.95 Bohr mag/cell
     absolute magnetization    =     3.76 Bohr mag/cell

     iteration #  5     ecut=    40.00 Ry     beta= 0.10
     Davidson diagonalization with overlap
     ethr =  1.12E-03,  avg # of iterations =  1.0

     negative rho (up, down):  1.566E-01 5.915E-02

     total cpu time spent up to now is       46.8 secs

     total energy              =    -559.61559671 Ry
     estimated scf accuracy    <       2.84549429 Ry

     total magnetization       =     4.02 Bohr mag/cell
     absolute magnetization    =     4.28 Bohr mag/cell

     iteration #  6     ecut=    40.00 Ry     beta= 0.10
     Davidson diagonalization with overlap
     ethr =  1.12E-03,  avg # of iterations =  1.0

     negative rho (up, down):  2.478E-01 5.966E-02

     total cpu time spent up to now is       52.4 secs

     total energy              =    -559.69631370 Ry
     estimated scf accuracy    <       0.15600661 Ry

     total magnetization       =     4.01 Bohr mag/cell
     absolute magnetization    =     4.53 Bohr mag/cell

     iteration #  7     ecut=    40.00 Ry     beta= 0.10
     Davidson diagonalization with overlap
     ethr =  2.23E-04,  avg # of iterations = 11.0

     negative rho (up, down):  2.108E-01 3.382E-02

     total cpu time spent up to now is       61.7 secs

     total energy              =    -559.73569239 Ry
     estimated scf accuracy    <       0.42327490 Ry

     total magnetization       =     4.24 Bohr mag/cell
     absolute magnetization    =     4.88 Bohr mag/cell

     iteration #  8     ecut=    40.00 Ry     beta= 0.10
     Davidson diagonalization with overlap
     ethr =  2.23E-04,  avg # of iterations =  1.5

     negative rho (up, down):  1.895E-01 3.243E-02

     total cpu time spent up to now is       67.4 secs

     total energy              =    -559.73507977 Ry
     estimated scf accuracy    <       0.34449918 Ry

     total magnetization       =     4.09 Bohr mag/cell
     absolute magnetization    =     4.72 Bohr mag/cell

     iteration #  9     ecut=    40.00 Ry     beta= 0.10
     Davidson diagonalization with overlap
     ethr =  2.23E-04,  avg # of iterations =  1.0

     negative rho (up, down):  1.816E-01 1.030E-01

     total cpu time spent up to now is       73.0 secs

     total energy              =    -559.75208232 Ry
     estimated scf accuracy    <       0.15655088 Ry

     total magnetization       =     4.04 Bohr mag/cell
     absolute magnetization    =     4.63 Bohr mag/cell

     iteration # 10     ecut=    40.00 Ry     beta= 0.10
     Davidson diagonalization with overlap
     ethr =  2.23E-04,  avg # of iterations =  1.0

     negative rho (up, down):  1.746E-01 1.888E-01

     total cpu time spent up to now is       78.5 secs

     total energy              =    -559.77584966 Ry
     estimated scf accuracy    <       0.02763987 Ry

     total magnetization       =     4.14 Bohr mag/cell
     absolute magnetization    =     4.66 Bohr mag/cell

     iteration # 11     ecut=    40.00 Ry     beta= 0.10
     Davidson diagonalization with overlap
     ethr =  3.95E-05,  avg # of iterations = 10.5

     negative rho (up, down):  1.652E-01 1.864E-01

     total cpu time spent up to now is       84.9 secs

     total energy              =    -559.79053254 Ry
     estimated scf accuracy    <       0.76169027 Ry

     total magnetization       =     3.66 Bohr mag/cell
     absolute magnetization    =     4.02 Bohr mag/cell

     iteration # 12     ecut=    40.00 Ry     beta= 0.10
     Davidson diagonalization with overlap
     ethr =  3.95E-05,  avg # of iterations =  1.5

     negative rho (up, down):  1.548E-01 1.789E-01

     total cpu time spent up to now is       90.6 secs

     total energy              =    -559.75910051 Ry
     estimated scf accuracy    <       0.58327230 Ry

     total magnetization       =     3.78 Bohr mag/cell
     absolute magnetization    =     4.16 Bohr mag/cell

     iteration # 13     ecut=    40.00 Ry     beta= 0.10
     Davidson diagonalization with overlap
     ethr =  3.95E-05,  avg # of iterations =  1.5

     negative rho (up, down):  1.563E-01 2.101E-01

     total cpu time spent up to now is       96.4 secs

     total energy              =    -559.78326359 Ry
     estimated scf accuracy    <       0.01671815 Ry

     total magnetization       =     4.14 Bohr mag/cell
     absolute magnetization    =     4.69 Bohr mag/cell

     iteration # 14     ecut=    40.00 Ry     beta= 0.10
     Davidson diagonalization with overlap
     ethr =  2.39E-05,  avg # of iterations =  1.0

     negative rho (up, down):  1.426E-01 2.040E-01

     total cpu time spent up to now is      102.0 secs

     total energy              =    -559.78530860 Ry
     estimated scf accuracy    <       0.01042072 Ry

     total magnetization       =     4.10 Bohr mag/cell
     absolute magnetization    =     4.70 Bohr mag/cell

     iteration # 15     ecut=    40.00 Ry     beta= 0.10
     Davidson diagonalization with overlap
     c_bands:  1 eigenvalues not converged
     ethr =  1.49E-05,  avg # of iterations = 11.0

     negative rho (up, down):  1.459E-01 1.743E-01

     total cpu time spent up to now is      109.1 secs

     total energy              =    -559.78678055 Ry
     estimated scf accuracy    <       0.01237859 Ry

     total magnetization       =     4.09 Bohr mag/cell
     absolute magnetization    =     4.68 Bohr mag/cell

     iteration # 16     ecut=    40.00 Ry     beta= 0.10
     Davidson diagonalization with overlap
     ethr =  1.49E-05,  avg # of iterations =  1.0

     negative rho (up, down):  1.384E-01 1.757E-01

     total cpu time spent up to now is      114.7 secs

     total energy              =    -559.78953975 Ry
     estimated scf accuracy    <       0.00682128 Ry

     total magnetization       =     4.08 Bohr mag/cell
     absolute magnetization    =     4.70 Bohr mag/cell

     iteration # 17     ecut=    40.00 Ry     beta= 0.10
     Davidson diagonalization with overlap
     ethr =  9.74E-06,  avg # of iterations =  1.5

     negative rho (up, down):  1.276E-01 1.704E-01

     total cpu time spent up to now is      120.5 secs

     total energy              =    -559.79241727 Ry
     estimated scf accuracy    <       0.01190262 Ry

     total magnetization       =     4.05 Bohr mag/cell
     absolute magnetization    =     4.70 Bohr mag/cell

     iteration # 18     ecut=    40.00 Ry     beta= 0.10
     Davidson diagonalization with overlap
     ethr =  9.74E-06,  avg # of iterations =  1.5

     negative rho (up, down):  1.261E-01 1.665E-01

     total cpu time spent up to now is      126.3 secs

     total energy              =    -559.79290168 Ry
     estimated scf accuracy    <       0.02001646 Ry

     total magnetization       =     4.09 Bohr mag/cell
     absolute magnetization    =     4.75 Bohr mag/cell

     iteration # 19     ecut=    40.00 Ry     beta= 0.10
     Davidson diagonalization with overlap
     ethr =  9.74E-06,  avg # of iterations =  1.5

     negative rho (up, down):  1.264E-01 1.559E-01

     total cpu time spent up to now is      132.1 secs

     total energy              =    -559.79419397 Ry
     estimated scf accuracy    <       0.00289440 Ry

     total magnetization       =     4.14 Bohr mag/cell
     absolute magnetization    =     4.82 Bohr mag/cell

     iteration # 20     ecut=    40.00 Ry     beta= 0.10
     Davidson diagonalization with overlap
     ethr =  4.13E-06,  avg # of iterations =  9.0

     negative rho (up, down):  1.260E-01 1.450E-01

     total cpu time spent up to now is      139.2 secs

     total energy              =    -559.79484998 Ry
     estimated scf accuracy    <       0.00066332 Ry

     total magnetization       =     4.13 Bohr mag/cell
     absolute magnetization    =     4.84 Bohr mag/cell

     iteration # 21     ecut=    40.00 Ry     beta= 0.10
     Davidson diagonalization with overlap
     ethr =  9.48E-07,  avg # of iterations =  3.0

     negative rho (up, down):  1.250E-01 1.302E-01

     total cpu time spent up to now is      145.2 secs

     total energy              =    -559.79563376 Ry
     estimated scf accuracy    <       0.00008814 Ry

     total magnetization       =     4.13 Bohr mag/cell
     absolute magnetization    =     4.85 Bohr mag/cell

     iteration # 22     ecut=    40.00 Ry     beta= 0.10
     Davidson diagonalization with overlap
     ethr =  1.26E-07,  avg # of iterations =  2.5

     negative rho (up, down):  1.239E-01 1.172E-01

     total cpu time spent up to now is      151.1 secs

     total energy              =    -559.79623659 Ry
     estimated scf accuracy    <       0.00006826 Ry

     total magnetization       =     4.14 Bohr mag/cell
     absolute magnetization    =     4.87 Bohr mag/cell

     iteration # 23     ecut=    40.00 Ry     beta= 0.10
     Davidson diagonalization with overlap
     ethr =  9.75E-08,  avg # of iterations =  1.5

     negative rho (up, down):  1.235E-01 1.107E-01

     total cpu time spent up to now is      156.9 secs

     total energy              =    -559.79654638 Ry
     estimated scf accuracy    <       0.00002422 Ry

     total magnetization       =     4.14 Bohr mag/cell
     absolute magnetization    =     4.88 Bohr mag/cell

     iteration # 24     ecut=    40.00 Ry     beta= 0.10
     Davidson diagonalization with overlap
     ethr =  3.46E-08,  avg # of iterations =  1.0

     negative rho (up, down):  1.232E-01 1.058E-01

     total cpu time spent up to now is      162.5 secs

     total energy              =    -559.79676664 Ry
     estimated scf accuracy    <       0.00000475 Ry

     total magnetization       =     4.14 Bohr mag/cell
     absolute magnetization    =     4.88 Bohr mag/cell

     iteration # 25     ecut=    40.00 Ry     beta= 0.10
     Davidson diagonalization with overlap
     ethr =  6.78E-09,  avg # of iterations =  3.0

     negative rho (up, down):  1.229E-01 1.024E-01

     total cpu time spent up to now is      168.5 secs

     total energy              =    -559.79693577 Ry
     estimated scf accuracy    <       0.00000280 Ry

     total magnetization       =     4.14 Bohr mag/cell
     absolute magnetization    =     4.88 Bohr mag/cell

     iteration # 26     ecut=    40.00 Ry     beta= 0.10
     Davidson diagonalization with overlap
     ethr =  4.01E-09,  avg # of iterations =  2.0

     negative rho (up, down):  1.227E-01 9.882E-02

     total cpu time spent up to now is      174.7 secs

     total energy              =    -559.79708257 Ry
     estimated scf accuracy    <       0.00000105 Ry

     total magnetization       =     4.15 Bohr mag/cell
     absolute magnetization    =     4.89 Bohr mag/cell

     iteration # 27     ecut=    40.00 Ry     beta= 0.10
     Davidson diagonalization with overlap
     ethr =  1.49E-09,  avg # of iterations =  2.0

     negative rho (up, down):  1.227E-01 9.618E-02

     total cpu time spent up to now is      180.8 secs

     total energy              =    -559.79719055 Ry
     estimated scf accuracy    <       0.00000074 Ry

     total magnetization       =     4.15 Bohr mag/cell
     absolute magnetization    =     4.89 Bohr mag/cell

     iteration # 28     ecut=    40.00 Ry     beta= 0.10
     Davidson diagonalization with overlap
     ethr =  1.06E-09,  avg # of iterations =  2.0

     negative rho (up, down):  1.227E-01 9.406E-02

     total cpu time spent up to now is      186.9 secs

     total energy              =    -559.79727731 Ry
     estimated scf accuracy    <       0.00000055 Ry

     total magnetization       =     4.15 Bohr mag/cell
     absolute magnetization    =     4.89 Bohr mag/cell

     iteration # 29     ecut=    40.00 Ry     beta= 0.10
     Davidson diagonalization with overlap
     ethr =  7.87E-10,  avg # of iterations =  2.0

     negative rho (up, down):  1.228E-01 9.252E-02

     total cpu time spent up to now is      192.9 secs

     total energy              =    -559.79734525 Ry
     estimated scf accuracy    <       0.00000053 Ry

     total magnetization       =     4.15 Bohr mag/cell
     absolute magnetization    =     4.89 Bohr mag/cell

     iteration # 30     ecut=    40.00 Ry     beta= 0.10
     Davidson diagonalization with overlap
     ethr =  7.60E-10,  avg # of iterations =  1.5

     negative rho (up, down):  1.228E-01 9.180E-02

     total cpu time spent up to now is      198.7 secs

     total energy              =    -559.79739135 Ry
     estimated scf accuracy    <       0.00000043 Ry

     total magnetization       =     4.15 Bohr mag/cell
     absolute magnetization    =     4.89 Bohr mag/cell

     iteration # 31     ecut=    40.00 Ry     beta= 0.10
     Davidson diagonalization with overlap
     ethr =  6.17E-10,  avg # of iterations =  2.0

     negative rho (up, down):  1.229E-01 9.072E-02

     total cpu time spent up to now is      204.8 secs

     total energy              =    -559.79744297 Ry
     estimated scf accuracy    <       0.00000021 Ry

     total magnetization       =     4.15 Bohr mag/cell
     absolute magnetization    =     4.89 Bohr mag/cell

     iteration # 32     ecut=    40.00 Ry     beta= 0.10
     Davidson diagonalization with overlap
     ethr =  2.98E-10,  avg # of iterations =  2.0

     negative rho (up, down):  1.230E-01 8.999E-02

     total cpu time spent up to now is      210.9 secs

     total energy              =    -559.79748346 Ry
     estimated scf accuracy    <       0.00000011 Ry

     total magnetization       =     4.15 Bohr mag/cell
     absolute magnetization    =     4.89 Bohr mag/cell

     iteration # 33     ecut=    40.00 Ry     beta= 0.10
     Davidson diagonalization with overlap
     ethr =  1.57E-10,  avg # of iterations =  2.0

     negative rho (up, down):  1.231E-01 8.953E-02

     total cpu time spent up to now is      217.1 secs

     total energy              =    -559.79751542 Ry
     estimated scf accuracy    <       0.00000008 Ry

     total magnetization       =     4.15 Bohr mag/cell
     absolute magnetization    =     4.89 Bohr mag/cell

     iteration # 34     ecut=    40.00 Ry     beta= 0.10
     Davidson diagonalization with overlap
     ethr =  1.13E-10,  avg # of iterations =  2.0

     negative rho (up, down):  1.232E-01 8.924E-02

     total cpu time spent up to now is      223.1 secs

     total energy              =    -559.79754125 Ry
     estimated scf accuracy    <       0.00000005 Ry

     total magnetization       =     4.15 Bohr mag/cell
     absolute magnetization    =     4.89 Bohr mag/cell

     iteration # 35     ecut=    40.00 Ry     beta= 0.10
     Davidson diagonalization with overlap
     ethr =  7.36E-11,  avg # of iterations =  2.0

     negative rho (up, down):  1.243E-01 9.088E-02
 
     Magnetic moment per site  (integrated on atomic sphere of radius R)
     atom   1 (R=0.021)  charge=  1.8084  magn=  0.0913
     atom   2 (R=0.021)  charge=  1.0296  magn=  0.0156
     atom   3 (R=0.021)  charge=  1.8102  magn=  0.0912
     atom   4 (R=0.021)  charge=  1.0291  magn=  0.0152
     atom   5 (R=0.021)  charge=  1.8143  magn=  0.0925
     atom   6 (R=0.021)  charge=  1.0340  magn=  0.0031
     atom   7 (R=0.037)  charge= 13.2505  magn=  2.2979
     atom   8 (R=0.021)  charge=  1.0344  magn=  0.0031
     atom   9 (R=0.021)  charge=  1.8140  magn=  0.0924
     atom  10 (R=0.021)  charge=  1.0290  magn=  0.0163
     atom  11 (R=0.021)  charge=  1.8100  magn=  0.0911
     atom  12 (R=0.021)  charge=  1.0300  magn=  0.0165
     atom  13 (R=0.021)  charge=  1.8093  magn=  0.0907

     total cpu time spent up to now is      229.1 secs

     End of self-consistent calculation

 ------ SPIN UP ------------


          k = 0.0000 0.0000 0.0000 (201544 PWs)   bands (ev):

   -98.8480 -64.6943 -64.6712 -64.6584 -24.5362 -24.4999 -24.4842 -24.4662
   -24.3527 -24.3483 -15.5786 -14.0188 -14.0094 -13.5664 -12.9313 -12.7770
   -12.6721 -12.6338 -12.5697 -11.0376 -10.9562 -10.6849 -10.6047 -10.5264
   -10.5123 -10.3968 -10.2765 -10.2588 -10.2355 -10.2198 -10.1518 -10.0298
    -9.9774  -9.9172  -9.8197  -9.6331  -9.5917  -7.0685  -7.0510  -3.1460
    -2.9998  -2.7798  -2.4538  -2.4010  -2.3172  -1.9182  -1.8029  -1.5148
    -0.9464  -0.8870  -0.8735  -0.8473  -0.5318  -0.5282  -0.4236  -0.4200
    -0.4059  -0.3073  -0.2569  -0.2522  -0.2224  -0.1809  -0.1541  -0.1467
    -0.1307  -0.1124  -0.0908  -0.0901  -0.0652  -0.0583  -0.0515  -0.0475
    -0.0116  -0.0021   0.2749   0.3017   0.3073   0.3240   0.3301   0.3317
     0.3754   0.3775   0.3784   0.3823   0.3830   0.4041   0.4229   0.4378
     0.4395   0.4420   0.4450   0.4451   0.5992   0.6010   0.6022   0.6268
     0.6309   0.6333   0.6349   0.6412   0.6419   0.6458   0.6519   0.6543
     0.7600   0.7758   0.7791   0.7888   0.7965   0.8084   0.8129   0.8383
     0.9665   0.9818   0.9891   0.9925   1.0023   1.0050   1.0102   1.0149
     1.0151   1.0193   1.0277   1.0290   1.0595   1.0692   1.0833   1.1027
     1.1134   1.1194   1.1263   1.1309   1.1317   1.1367   1.1420   1.1446
     1.1608   1.1720   1.1862   1.1879   1.2012   1.2033   1.2406   1.2415
     1.2716   1.2756   1.2765   1.2780   1.4644   1.4806   1.4812   1.4865
     1.4875   1.4945   1.5024   1.5072   1.5091   1.5135   1.5204   1.5357
     1.7350   1.7580   1.7585   1.7767   1.8300   1.8429   1.8612   1.8850
     1.8936   1.9054   1.9144   1.9162   1.9339   1.9467   1.9549   1.9577
     1.9606   1.9654   1.9681   1.9696   1.9781   1.9796   1.9865   1.9943
     2.0036   2.0114   2.0515   2.0567   2.0611   2.0672   2.0866   2.1010
     2.1051   2.1055   2.1102   2.1184   2.1308   2.1429   2.1471   2.1538

 ------ SPIN DOWN ----------


          k = 0.0000 0.0000 0.0000 (201544 PWs)   bands (ev):

   -96.0275 -61.9817 -61.8965 -61.8703 -24.2565 -24.2174 -24.2004 -24.1815
   -24.0765 -24.0712 -15.3257 -13.4147 -13.3922 -13.3788 -12.8234 -12.5840
   -10.9604 -10.9139 -10.7980 -10.5634 -10.4810 -10.3354 -10.2861 -10.2809
   -10.2680 -10.0657 -10.0022  -9.8493  -9.7001  -9.6949  -9.6885  -9.6531
    -9.3998  -9.1750  -8.7352  -8.7279  -8.7168  -6.3556  -6.3487  -2.7257
    -2.6038  -2.3922  -2.2525  -2.2020  -2.1424  -1.7894  -1.6446  -1.3253
    -0.9016  -0.7509  -0.7356  -0.7230  -0.5523  -0.5286  -0.4492  -0.4475
    -0.3965  -0.2974  -0.2666  -0.2429  -0.2350  -0.1952  -0.1778  -0.1396
    -0.1276  -0.1256  -0.0965  -0.0914  -0.0805  -0.0703  -0.0620  -0.0554
    -0.0032   0.0058   0.2816   0.2820   0.2847   0.3053   0.3142   0.3201
     0.3383   0.3623   0.3864   0.3976   0.4001   0.4107   0.4199   0.4206
     0.4287   0.4313   0.4399   0.4411   0.5920   0.6044   0.6090   0.6125
     0.6200   0.6208   0.6278   0.6307   0.6340   0.6462   0.6492   0.6527
     0.7619   0.7682   0.7906   0.7966   0.8020   0.8112   0.8153   0.8443
     0.9293   0.9486   0.9645   0.9788   0.9911   0.9922   0.9981   1.0010
     1.0127   1.0187   1.0219   1.0338   1.0691   1.0724   1.0765   1.0880
     1.0991   1.1098   1.1182   1.1226   1.1266   1.1399   1.1418   1.1442
     1.1685   1.1866   1.1927   1.1952   1.1968   1.1997   1.2437   1.2457
     1.2580   1.2605   1.2752   1.2758   1.4373   1.4690   1.4733   1.4806
     1.4847   1.4852   1.4942   1.5059   1.5107   1.5129   1.5194   1.5247
     1.6970   1.7257   1.7579   1.7653   1.8044   1.8392   1.8578   1.8910
     1.8935   1.9034   1.9077   1.9194   1.9339   1.9371   1.9459   1.9595
     1.9599   1.9619   1.9653   1.9719   1.9766   1.9845   1.9895   1.9926
     1.9950   2.0184   2.0349   2.0470   2.0619   2.0653   2.0824   2.0894
     2.0991   2.1097   2.1159   2.1255   2.1309   2.1377   2.1395   2.1461

     the Fermi energy is    -9.3338 ev

!    total energy              =    -559.79767152 Ry
     estimated scf accuracy    <       0.00000002 Ry
     smearing contrib. (-TS)   =       0.00617205 Ry
     internal energy E=F+TS    =    -559.80384358 Ry

     The total energy is F=E-TS. E is the sum of the following terms:
     one-electron contribution =   -1678.82517192 Ry
     hartree contribution      =     838.12465669 Ry
     xc contribution           =     -92.38910519 Ry
     ewald contribution        =     486.52218258 Ry
     one-center paw contrib.   =    -113.23640573 Ry

     total magnetization       =     4.15 Bohr mag/cell
     absolute magnetization    =     4.89 Bohr mag/cell

     convergence has been achieved in  35 iterations

     negative rho (up, down):  1.243E-01 9.088E-02

     Forces acting on atoms (cartesian axes, Ry/au):

     atom    1 type  1   force =    -0.00111001   -0.00320476    0.00216182
     atom    2 type  2   force =    -0.00464528   -0.01022111    0.04975248
     atom    3 type  1   force =     0.00217540    0.00223616   -0.00182367
     atom    4 type  2   force =     0.02522483    0.03742447    0.02581135
     atom    5 type  1   force =     0.00573168   -0.00441449   -0.00106053
     atom    6 type  2   force =    -0.05208819    0.03646419    0.00876726
     atom    7 type  3   force =    -0.00007421   -0.00033422   -0.00068900
     atom    8 type  2   force =     0.05286146   -0.03692129   -0.00987441
     atom    9 type  1   force =    -0.00694719    0.00505124    0.00160491
     atom   10 type  2   force =    -0.02435143   -0.03563207   -0.02601173
     atom   11 type  1   force =    -0.00270403   -0.00363969    0.00196982
     atom   12 type  2   force =     0.00458857    0.01001288   -0.04933167
     atom   13 type  1   force =     0.00133841    0.00317870   -0.00127663

     Total force =     0.137735     Total SCF correction =     0.000099


     Computing stress (Cartesian axis) and pressure


     negative rho (up, down):  1.243E-01 9.088E-02
          total   stress  (Ry/bohr**3)                   (kbar)     P=       -1.45
  -0.00000959   0.00000012  -0.00000009           -1.41        0.02       -0.01
   0.00000012  -0.00000953  -0.00000062            0.02       -1.40       -0.09
  -0.00000009  -0.00000062  -0.00001047           -0.01       -0.09       -1.54


     Writing output data file ./out/aiida.save/
 
     init_run     :      8.39s CPU      8.77s WALL (       1 calls)
     electrons    :    211.22s CPU    220.28s WALL (       1 calls)
     forces       :      3.82s CPU      3.95s WALL (       1 calls)
     stress       :      9.30s CPU      9.54s WALL (       1 calls)

     Called by init_run:
     wfcinit      :      1.40s CPU      1.46s WALL (       1 calls)
     potinit      :      1.87s CPU      1.93s WALL (       1 calls)
     hinit0       :      2.95s CPU      3.09s WALL (       1 calls)

     Called by electrons:
     c_bands      :    118.69s CPU    120.99s WALL (      35 calls)
     sum_band     :     54.30s CPU     57.55s WALL (      35 calls)
     v_of_rho     :     15.45s CPU     15.98s WALL (      36 calls)
     newd         :     13.46s CPU     16.20s WALL (      36 calls)
     PAW_pot      :      3.67s CPU      3.68s WALL (      36 calls)
     mix_rho      :      4.01s CPU      4.08s WALL (      35 calls)

     Called by c_bands:
     init_us_2    :      0.29s CPU      0.31s WALL (     146 calls)
     regterg      :    117.32s CPU    119.55s WALL (      70 calls)

     Called by *egterg:
     rdiaghg      :      3.78s CPU      3.82s WALL (     276 calls)
     h_psi        :     84.32s CPU     85.50s WALL (     278 calls)
     s_psi        :      1.35s CPU      1.36s WALL (     278 calls)
     g_psi        :      0.26s CPU      0.27s WALL (     206 calls)

     Called by h_psi:
     h_psi:calbec :      1.21s CPU      1.23s WALL (     278 calls)
     vloc_psi     :     81.00s CPU     82.15s WALL (     278 calls)
     add_vuspsi   :      1.39s CPU      1.40s WALL (     278 calls)

     General routines
     calbec       :      2.01s CPU      2.04s WALL (     358 calls)
     fft          :     15.60s CPU     15.77s WALL (     783 calls)
     ffts         :      0.68s CPU      0.69s WALL (     142 calls)
     fftw         :     61.09s CPU     61.94s WALL (   39178 calls)
     interpolate  :      1.80s CPU      1.83s WALL (      72 calls)
 
     Parallel routines
 
     PWSCF        :   3m54.18s CPU   4m 5.40s WALL

 
   This run was terminated on:  16:58: 6   2Apr2025            

=------------------------------------------------------------------------------=
   JOB DONE.
=------------------------------------------------------------------------------=
