
     Program PWSCF v.7.0 starts on 18Dec2024 at  7:10:37 

     This program is part of the open-source Quantum ESPRESSO suite
     for quantum simulation of materials; please cite
         "P. Giannozzi et al., J. Phys.:Condens. Matter 21 395502 (2009);
         "P. Giannozzi et al., J. Phys.:Condens. Matter 29 465901 (2017);
         "P. Giannozzi et al., J. Chem. Phys. 152 154105 (2020);
          URL http://www.quantum-espresso.org", 
     in publications or presentations arising from this work. More details at
     http://www.quantum-espresso.org/quote

     Parallel version (MPI & OpenMP), running on     288 processor cores
     Number of MPI processes:               144
     Threads/MPI process:                     2

     MPI processes distributed on     4 nodes
     R & G space division:  proc/nbgrp/npool/nimage =     144
     59432 MiB available memory on the printing compute node when the environment starts
 
     Reading input from pwnscf.in
Warning: card &IONS ignored
Warning: card / ignored

     Current dimensions of program PWSCF are:
     Max number of different atomic species (ntypx) = 10
     Max number of k-points (npk) =  40000
     Max angular momentum in pseudopotentials (lmaxx) =  4
     Message from routine input:
     WARNING: "startingwfc" set to atomic+random may spoil restart
     file O.pbe-n-kjpaw_psl.0.1.UPF: wavefunction(s)  2P renormalized
     file Ce.paw.z_12.atompaw.wentzcovitch.v1.2.upf: wavefunction(s)  6S 0P 5D 0D 4F 0F renormalized
     file C.pbe-n-kjpaw_psl.1.0.0.UPF: wavefunction(s)  2S 2P renormalized
     file Fe.pbe-spn-kjpaw_psl.0.2.1.UPF: wavefunction(s)  3D renormalized

     gamma-point specific algorithms are used

     Subspace diagonalization in iterative solution of the eigenvalue problem:
     one sub-group per band group will be used
     scalapack distributed-memory algorithm (size of sub-group: 12* 12 procs)

 
     Parallelization info
     --------------------
     sticks:   dense  smooth     PW     G-vecs:    dense   smooth      PW
     Min         293     146     36                63314    22382    2788
     Max         296     148     38                63338    22404    2818
     Sum       42361   21205   5305              9119279  3224425  403087
 
     Using Slab Decomposition
 


     bravais-lattice index     =            0
     lattice parameter (alat)  =      43.8349  a.u.
     unit-cell volume          =   94338.8593 (a.u.)^3
     number of atoms/cell      =          242
     number of atomic types    =            6
     number of electrons       =      1840.00
     number of Kohn-Sham states=         2000
     kinetic-energy cutoff     =      40.0000  Ry
     charge density cutoff     =     320.0000  Ry
     Exchange-correlation= SLA  PW   PBX  PBC
                           (   1   4   3   4   0   0   0)

     celldm(1)=  43.834893  celldm(2)=   0.000000  celldm(3)=   0.000000
     celldm(4)=   0.000000  celldm(5)=   0.000000  celldm(6)=   0.000000

     crystal axes: (cart. coord. in units of alat)
               a(1) = (   1.000000   0.000000   0.000000 )  
               a(2) = (  -0.500000   0.866025   0.000000 )  
               a(3) = (   0.000000   0.000000   1.293303 )  

     reciprocal axes: (cart. coord. in units 2 pi/alat)
               b(1) = (  1.000000  0.577350  0.000000 )  
               b(2) = (  0.000000  1.154701  0.000000 )  
               b(3) = (  0.000000  0.000000  0.773214 )  


     PseudoPot. # 1 for O  read from file:
     ./pseudo/O.pbe-n-kjpaw_psl.0.1.UPF
     MD5 check sum: 0234752ac141de4415c5fc33072bef88
     Pseudo is Projector augmented-wave + core cor, Zval =  6.0
     Generated using "atomic" code by A. Dal Corso  v.5.0.99 svn rev. 10869
     Shape of augmentation charge: BESSEL
     Using radial grid of 1095 points,  4 beta functions with: 
                l(1) =   0
                l(2) =   0
                l(3) =   1
                l(4) =   1
     Q(r) pseudized with 0 coefficients 


     PseudoPot. # 2 for Ce read from file:
     ./pseudo/Ce.paw.z_12.atompaw.wentzcovitch.v1.2.upf
     MD5 check sum: 2241420ff980c77e0c917a2dc8a7e08e
     Pseudo is Projector augmented-wave + core cor, Zval = 12.0
     Generated using ATOMPAW code
     Shape of augmentation charge: BESSEL
     Using radial grid of 1102 points,  8 beta functions with: 
                l(1) =   0
                l(2) =   0
                l(3) =   1
                l(4) =   1
                l(5) =   2
                l(6) =   2
                l(7) =   3
                l(8) =   3
     Q(r) pseudized with 0 coefficients 


     PseudoPot. # 3 for H  read from file:
     ./pseudo/H.pbe-rrkjus_psl.1.0.0.UPF
     MD5 check sum: f52b6d4d1c606e5624b1dc7b2218f220
     Pseudo is Ultrasoft, Zval =  1.0
     Generated using "atomic" code by A. Dal Corso  v.5.1
     Using radial grid of  929 points,  2 beta functions with: 
                l(1) =   0
                l(2) =   0
     Q(r) pseudized with 0 coefficients 


     PseudoPot. # 4 for N  read from file:
     ./pseudo/N.pbe-n-radius_5.UPF
     MD5 check sum: 16739722b17309cd8fe442a2ace49922
     Pseudo is Ultrasoft + core correction, Zval =  5.0
     Generated using "atomic" code by A. Dal Corso  v.5.1
     Using radial grid of 1085 points,  4 beta functions with: 
                l(1) =   0
                l(2) =   0
                l(3) =   1
                l(4) =   1
     Q(r) pseudized with 0 coefficients 


     PseudoPot. # 5 for C  read from file:
     ./pseudo/C.pbe-n-kjpaw_psl.1.0.0.UPF
     MD5 check sum: 5d2aebdfa2cae82b50a7e79e9516da0f
     Pseudo is Projector augmented-wave + core cor, Zval =  4.0
     Generated using "atomic" code by A. Dal Corso  v.5.1
     Shape of augmentation charge: PSQ
     Using radial grid of 1073 points,  4 beta functions with: 
                l(1) =   0
                l(2) =   0
                l(3) =   1
                l(4) =   1
     Q(r) pseudized with 0 coefficients 


     PseudoPot. # 6 for Fe read from file:
     ./pseudo/Fe.pbe-spn-kjpaw_psl.0.2.1.UPF
     MD5 check sum: e86618425769142926afa95317d90200
     Pseudo is Projector augmented-wave + core cor, Zval = 16.0
     Generated using "atomic" code by A. Dal Corso  v.5.0.99 svn rev. 10869
     Shape of augmentation charge: PSQ
     Using radial grid of 1191 points,  6 beta functions with: 
                l(1) =   0
                l(2) =   0
                l(3) =   1
                l(4) =   1
                l(5) =   2
                l(6) =   2
     Q(r) pseudized with 0 coefficients 


     atomic species   valence    mass     pseudopotential
        O              6.00    15.99940     O ( 1.00)
        Ce            12.00   140.11600     Ce( 1.00)
        H              1.00     1.00794     H ( 1.00)
        N              5.00    14.00670     N ( 1.00)
        C              4.00    12.01070     C ( 1.00)
        Fe            16.00    55.84500     Fe( 1.00)

     Starting magnetic structure 
     atomic species   magnetization
        O            0.100
        Ce           0.417
        H            0.000
        N            0.000
        C            0.000
        Fe           0.417


     Simplified LDA+U calculation (l_max = 3) with parameters (eV):
     atomic species    L          U    alpha       J0     beta
        Ce             3     5.0000   0.0000   0.0000   0.0000
        Fe             2     6.0000   0.0000   0.0000   0.0000



     No symmetry found


                                    s                        frac. trans.

      isym =  1     identity                                     

 cryst.   s( 1) = (     1          0          0      )
                  (     0          1          0      )
                  (     0          0          1      )

 cart.    s( 1) = (  1.0000000  0.0000000  0.0000000 )
                  (  0.0000000  1.0000000  0.0000000 )
                  (  0.0000000  0.0000000  1.0000000 )


   Cartesian axes

     site n.     atom                  positions (alat units)
         1           O   tau(   1) = (   0.0833330   0.2405628   0.2721652  )
         2           O   tau(   2) = (   0.0833331   0.8179129   0.2721652  )
         3           O   tau(   3) = (   0.0833335   0.5292376   0.2721652  )
         4           O   tau(   4) = (   0.1666664   0.6735755   0.2721652  )
         5           O   tau(   5) = (   0.1666665   0.0962249   0.2721652  )
         6           O   tau(   6) = (   0.1666667   0.3849002   0.2721652  )
         7           O   tau(   7) = (   0.2499996   0.8179129   0.2721652  )
         8           O   tau(   8) = (   0.2500000   0.5292376   0.2721652  )
         9           O   tau(   9) = (   0.2500000   0.2405628   0.2721652  )
        10           O   tau(  10) = (   0.3333329   0.6735755   0.2721652  )
        11           O   tau(  11) = (   0.3333332   0.3849002   0.2721652  )
        12           O   tau(  12) = (   0.3333335   0.0962249   0.2721652  )
        13           O   tau(  13) = (   0.4166664   0.5292376   0.2721652  )
        14           O   tau(  14) = (   0.4166665   0.2405628   0.2721652  )
        15           O   tau(  15) = (   0.4166666   0.8179129   0.2721652  )
        16           O   tau(  16) = (  -0.0000000   0.0962249   0.2721652  )
        17           O   tau(  17) = (  -0.0000001   0.6735755   0.2721652  )
        18           O   tau(  18) = (  -0.0000003   0.3849002   0.2721652  )
        19           O   tau(  19) = (  -0.0833334   0.8179129   0.2721652  )
        20           O   tau(  20) = (  -0.0833335   0.2405628   0.2721652  )
        21           O   tau(  21) = (  -0.0833336   0.5292376   0.2721652  )
        22           O   tau(  22) = (  -0.1666668   0.3849002   0.2721652  )
        23           O   tau(  23) = (  -0.1666671   0.6735755   0.2721652  )
        24           O   tau(  24) = (  -0.2500001   0.5292376   0.2721652  )
        25           O   tau(  25) = (  -0.2500004   0.8179129   0.2721652  )
        26           O   tau(  26) = (  -0.3333336   0.6735755   0.2721652  )
        27           O   tau(  27) = (  -0.4166669   0.8179129   0.2721652  )
        28           O   tau(  28) = (   0.4999997   0.3849002   0.2721652  )
        29           O   tau(  29) = (   0.4999999   0.6735755   0.2721652  )
        30           O   tau(  30) = (   0.5000000   0.0962249   0.2721652  )
        31           O   tau(  31) = (   0.5833329   0.2405628   0.2721652  )
        32           O   tau(  32) = (   0.5833335   0.5292376   0.2721652  )
        33           O   tau(  33) = (   0.6666665   0.0962249   0.2721652  )
        34           O   tau(  34) = (   0.6666667   0.3849002   0.2721652  )
        35           O   tau(  35) = (   0.7500000   0.2405628   0.2721652  )
        36           O   tau(  36) = (   0.8333335   0.0962249   0.2721652  )
        37           Ce  tau(  37) = (   0.0000000   0.0000000   0.3061864  )
        38           Ce  tau(  38) = (   0.0000002   0.5773501   0.3061864  )
        39           Ce  tau(  39) = (   0.0833332   0.7216879   0.3061864  )
        40           Ce  tau(  40) = (   0.0833332   0.1443374   0.3061864  )
        41           Ce  tau(  41) = (   0.0833334   0.4330127   0.3061864  )
        42           Ce  tau(  42) = (   0.1666665   0.0000000   0.3061864  )
        43           Ce  tau(  43) = (   0.1666667   0.5773501   0.3061864  )
        44           Ce  tau(  44) = (   0.1666667   0.2886753   0.3061864  )
        45           Ce  tau(  45) = (   0.2499997   0.7216879   0.3061864  )
        46           Ce  tau(  46) = (   0.2499999   0.4330127   0.3061864  )
        47           Ce  tau(  47) = (   0.2500002   0.1443374   0.3061864  )
        48           Ce  tau(  48) = (   0.3333332   0.5773501   0.3061864  )
        49           Ce  tau(  49) = (   0.3333332   0.2886753   0.3061864  )
        50           Ce  tau(  50) = (   0.3333335   0.0000000   0.3061864  )
        51           Ce  tau(  51) = (   0.4166665   0.4330127   0.3061864  )
        52           Ce  tau(  52) = (   0.4166667   0.7216879   0.3061864  )
        53           Ce  tau(  53) = (   0.4166667   0.1443374   0.3061864  )
        54           Ce  tau(  54) = (  -0.0000003   0.2886753   0.3061864  )
        55           Ce  tau(  55) = (  -0.0833333   0.1443374   0.3061864  )
        56           Ce  tau(  56) = (  -0.0833333   0.7216879   0.3061864  )
        57           Ce  tau(  57) = (  -0.0833336   0.4330127   0.3061864  )
        58           Ce  tau(  58) = (  -0.1666668   0.2886753   0.3061864  )
        59           Ce  tau(  59) = (  -0.1666668   0.5773501   0.3061864  )
        60           Ce  tau(  60) = (  -0.2500001   0.4330127   0.3061864  )
        61           Ce  tau(  61) = (  -0.2500003   0.7216879   0.3061864  )
        62           Ce  tau(  62) = (  -0.3333333   0.5773501   0.3061864  )
        63           Ce  tau(  63) = (   0.4999997   0.2886753   0.3061864  )
        64           Ce  tau(  64) = (   0.5000000   0.0000000   0.3061864  )
        65           Ce  tau(  65) = (   0.5000002   0.5773501   0.3061864  )
        66           Ce  tau(  66) = (   0.5833332   0.7216879   0.3061864  )
        67           Ce  tau(  67) = (   0.5833332   0.1443374   0.3061864  )
        68           Ce  tau(  68) = (   0.5833334   0.4330127   0.3061864  )
        69           Ce  tau(  69) = (   0.6666665   0.0000000   0.3061864  )
        70           Ce  tau(  70) = (   0.6666667   0.2886753   0.3061864  )
        71           Ce  tau(  71) = (   0.7500002   0.1443374   0.3061864  )
        72           Ce  tau(  72) = (   0.8333335   0.0000000   0.3061864  )
        73           O   tau(  73) = (   0.0000002   0.4811252   0.3402076  )
        74           O   tau(  74) = (   0.0833332   0.0481125   0.3402076  )
        75           O   tau(  75) = (   0.0833334   0.6254625   0.3402076  )
        76           O   tau(  76) = (   0.0833334   0.3367877   0.3402076  )
        77           O   tau(  77) = (   0.1666664   0.7698004   0.3402076  )
        78           O   tau(  78) = (   0.1666667   0.4811252   0.3402076  )
        79           O   tau(  79) = (   0.1666670   0.1924499   0.3402076  )
        80           O   tau(  80) = (   0.2499999   0.6254625   0.3402076  )
        81           O   tau(  81) = (   0.2500000   0.3367877   0.3402076  )
        82           O   tau(  82) = (   0.2500002   0.0481125   0.3402076  )
        83           O   tau(  83) = (   0.3333332   0.4811252   0.3402076  )
        84           O   tau(  84) = (   0.3333334   0.7698004   0.3402076  )
        85           O   tau(  85) = (   0.3333335   0.1924499   0.3402076  )
        86           O   tau(  86) = (   0.4166664   0.3367877   0.3402076  )
        87           O   tau(  87) = (   0.4166668   0.0481125   0.3402076  )
        88           O   tau(  88) = (   0.4166670   0.6254625   0.3402076  )
        89           O   tau(  89) = (  -0.0000000   0.1924499   0.3402076  )
        90           O   tau(  90) = (  -0.0000001   0.7698004   0.3402076  )
        91           O   tau(  91) = (  -0.0833331   0.6254625   0.3402076  )
        92           O   tau(  92) = (  -0.0833336   0.3367877   0.3402076  )
        93           O   tau(  93) = (  -0.1666666   0.7698004   0.3402076  )
        94           O   tau(  94) = (  -0.1666668   0.4811252   0.3402076  )
        95           O   tau(  95) = (  -0.2500001   0.6254625   0.3402076  )
        96           O   tau(  96) = (  -0.3333336   0.7698004   0.3402076  )
        97           O   tau(  97) = (   0.4999999   0.7698004   0.3402076  )
        98           O   tau(  98) = (   0.5000000   0.1924499   0.3402076  )
        99           O   tau(  99) = (   0.5000002   0.4811252   0.3402076  )
       100           O   tau( 100) = (   0.5833332   0.0481125   0.3402076  )
       101           O   tau( 101) = (   0.5833335   0.6254625   0.3402076  )
       102           O   tau( 102) = (   0.5833335   0.3367877   0.3402076  )
       103           O   tau( 103) = (   0.6666667   0.4811252   0.3402076  )
       104           O   tau( 104) = (   0.6666670   0.1924499   0.3402076  )
       105           O   tau( 105) = (   0.7500000   0.3367877   0.3402076  )
       106           O   tau( 106) = (   0.7500003   0.0481125   0.3402076  )
       107           O   tau( 107) = (   0.8333335   0.1924499   0.3402076  )
       108           O   tau( 108) = (   0.9166668   0.0481125   0.3402076  )
       109           O   tau( 109) = (   0.0835984   0.7214098   0.4070138  )
       110           O   tau( 110) = (   0.3337522   0.2889741   0.4072450  )
       111           O   tau( 111) = (  -0.1667241   0.2887134   0.4068489  )
       112           O   tau( 112) = (  -0.4170123   0.7212092   0.4070287  )
       113           O   tau( 113) = (   0.1672442   0.5771115   0.4070369  )
       114           O   tau( 114) = (   0.4167774   0.1446974   0.4071267  )
       115           O   tau( 115) = (  -0.0833718   0.1444031   0.4068825  )
       116           O   tau( 116) = (  -0.3335866   0.5773553   0.4069278  )
       117           O   tau( 117) = (  -0.0000182   0.2886796   0.4068575  )
       118           O   tau( 118) = (   0.2505503   0.7210848   0.4070715  )
       119           O   tau( 119) = (  -0.2501793   0.7215279   0.4070598  )
       120           O   tau( 120) = (   0.4998639   0.2886299   0.4069783  )
       121           O   tau( 121) = (   0.0835780   0.4331113   0.4071091  )
       122           O   tau( 122) = (   0.3333293  -0.0000748   0.4071282  )
       123           O   tau( 123) = (   0.5846160   0.4332233   0.4065984  )
       124           O   tau( 124) = (   0.8334690  -0.0000921   0.4070398  )
       125           O   tau( 125) = (  -0.0000312  -0.0001012   0.4069830  )
       126           O   tau( 126) = (   0.2505006   0.4321359   0.4074726  )
       127           O   tau( 127) = (  -0.2498551   0.4329823   0.4068565  )
       128           O   tau( 128) = (   0.5001359  -0.0000649   0.4069657  )
       129           O   tau( 129) = (   0.1665301  -0.0001687   0.4070064  )
       130           O   tau( 130) = (   0.4168050   0.4343330   0.4075775  )
       131           O   tau( 131) = (  -0.0833135   0.4329998   0.4068976  )
       132           O   tau( 132) = (   0.6668201  -0.0000820   0.4070058  )
       133           O   tau( 133) = (   0.1665318   0.2887857   0.4068854  )
       134           O   tau( 134) = (   0.4166741   0.7216565   0.4069587  )
       135           O   tau( 135) = (  -0.0832142   0.7215995   0.4068759  )
       136           O   tau( 136) = (   0.6669222   0.2885139   0.4069206  )
       137           O   tau( 137) = (   0.2500770   0.1436702   0.4066464  )
       138           O   tau( 138) = (   0.0002196   0.5774106   0.4070030  )
       139           O   tau( 139) = (   0.4975552   0.5762425   0.4085884  )
       140           O   tau( 140) = (   0.7498885   0.1444361   0.4069968  )
       141           O   tau( 141) = (   0.0833248   0.1442179   0.4068029  )
       142           O   tau( 142) = (   0.3362890   0.5759670   0.4086238  )
       143           O   tau( 143) = (  -0.1666205   0.5773497   0.4068169  )
       144           O   tau( 144) = (   0.5834185   0.1444627   0.4068914  )
       145           Ce  tau( 145) = (   0.0833717   0.6254084   0.4418272  )
       146           Ce  tau( 146) = (   0.3330358   0.1915753   0.4413666  )
       147           Ce  tau( 147) = (   0.5836536   0.6256844   0.4417892  )
       148           Ce  tau( 148) = (   0.8333485   0.1925421   0.4418411  )
       149           Ce  tau( 149) = (   0.0000883   0.7697319   0.4417112  )
       150           Ce  tau( 150) = (   0.2493166   0.3355650   0.4427496  )
       151           Ce  tau( 151) = (   0.5001033   0.7704940   0.4414950  )
       152           Ce  tau( 152) = (   0.7505229   0.3365684   0.4417492  )
       153           Ce  tau( 153) = (   0.1667129   0.7698150   0.4419425  )
       154           Ce  tau( 154) = (   0.4172752   0.3359617   0.4406361  )
       155           Ce  tau( 155) = (  -0.0832196   0.3367758   0.4418930  )
       156           Ce  tau( 156) = (  -0.3333369   0.7698750   0.4418497  )
       157           Ce  tau( 157) = (   0.1661278   0.4804860   0.4420697  )
       158           Ce  tau( 158) = (   0.4167593   0.0479273   0.4420292  )
       159           Ce  tau( 159) = (   0.6678385   0.4809729   0.4417243  )
       160           Ce  tau( 160) = (   0.9167413   0.0484647   0.4418999  )
       161           Ce  tau( 161) = (   0.0831486   0.3364196   0.4418928  )
       162           Ce  tau( 162) = (   0.3334816   0.7705215   0.4415749  )
       163           Ce  tau( 163) = (  -0.1666067   0.7698575   0.4417968  )
       164           Ce  tau( 164) = (   0.5846863   0.3364421   0.4415009  )
       165           Ce  tau( 165) = (   0.2498750   0.0479854   0.4418511  )
       166           Ce  tau( 166) = (   0.0000235   0.4810231   0.4419986  )
       167           Ce  tau( 167) = (   0.5029971   0.4801905   0.4414328  )
       168           Ce  tau( 168) = (   0.7499909   0.0482037   0.4418173  )
       169           Ce  tau( 169) = (  -0.0000074   0.1925378   0.4418489  )
       170           Ce  tau( 170) = (   0.2500945   0.6254745   0.4418244  )
       171           Ce  tau( 171) = (  -0.2497191   0.6255462   0.4417627  )
       172           Ce  tau( 172) = (   0.5002758   0.1921114   0.4418866  )
       173           Ce  tau( 173) = (   0.0834222   0.0481719   0.4418429  )
       174           Ce  tau( 174) = (   0.3318749   0.4794961   0.4410073  )
       175           Ce  tau( 175) = (  -0.1663453   0.4810259   0.4418372  )
       176           Ce  tau( 176) = (   0.5834756   0.0481250   0.4418469  )
       177           Ce  tau( 177) = (   0.1663562   0.1920333   0.4417297  )
       178           Ce  tau( 178) = (   0.4168962   0.6275427   0.4427662  )
       179           Ce  tau( 179) = (  -0.0832476   0.6254317   0.4417931  )
       180           Ce  tau( 180) = (   0.6668163   0.1922370   0.4418278  )
       181           O   tau( 181) = (   0.1667531   0.3851338   0.4750998  )
       182           O   tau( 182) = (   0.4166093   0.8175975   0.4759281  )
       183           O   tau( 183) = (  -0.0831291   0.8179539   0.4757491  )
       184           O   tau( 184) = (   0.6671149   0.3849129   0.4759094  )
       185           O   tau( 185) = (   0.0838048   0.5292230   0.4757627  )
       186           O   tau( 186) = (   0.3336199   0.0965335   0.4756450  )
       187           O   tau( 187) = (   0.5830544   0.5288543   0.4757420  )
       188           O   tau( 188) = (   0.8333283   0.0961094   0.4757499  )
       189           O   tau( 189) = (   0.2502566   0.8176220   0.4759365  )
       190           O   tau( 190) = (  -0.0000436   0.3848896   0.4757926  )
       191           O   tau( 191) = (  -0.2500671   0.8176891   0.4757080  )
       192           O   tau( 192) = (   0.5026601   0.3856397   0.4738945  )
       193           O   tau( 193) = (   0.1675117   0.6731675   0.4759352  )
       194           O   tau( 194) = (   0.4171721   0.2410203   0.4770578  )
       195           O   tau( 195) = (  -0.0834145   0.2405989   0.4757221  )
       196           O   tau( 196) = (  -0.3339487   0.6731612   0.4759129  )
       197           O   tau( 197) = (   0.0835406   0.8179152   0.4759168  )
       198           O   tau( 198) = (   0.3350730   0.3844548   0.4755119  )
       199           O   tau( 199) = (  -0.1667803   0.3849110   0.4759783  )
       200           O   tau( 200) = (  -0.4169258   0.8176098   0.4758256  )
       201           O   tau( 201) = (   0.2500183   0.2394805   0.4732285  )
       202           O   tau( 202) = (   0.0003769   0.6734924   0.4758436  )
       203           O   tau( 203) = (   0.4992528   0.6730824   0.4760353  )
       204           O   tau( 204) = (   0.7497929   0.2406614   0.4760693  )
       205           O   tau( 205) = (   0.2518302   0.5285333   0.4761849  )
       206           O   tau( 206) = (  -0.0000665   0.0960444   0.4757649  )
       207           O   tau( 207) = (  -0.2500135   0.5292068   0.4758902  )
       208           O   tau( 208) = (   0.5000839   0.0964788   0.4759113  )
       209           O   tau( 209) = (   0.0830968   0.2406510   0.4755353  )
       210           O   tau( 210) = (   0.3342546   0.6726904   0.4760909  )
       211           O   tau( 211) = (  -0.1666964   0.6734509   0.4758210  )
       212           O   tau( 212) = (   0.5830150   0.2407202   0.4759723  )
       213           O   tau( 213) = (   0.1666175   0.0959252   0.4756605  )
       214           O   tau( 214) = (   0.4184846   0.5255227   0.4886449  )
       215           O   tau( 215) = (  -0.0833068   0.5291902   0.4758225  )
       216           O   tau( 216) = (   0.6666635   0.0962668   0.4760641  )
       217           H   tau( 217) = (   0.3713775   0.2581959   0.5917783  )
       218           N   tau( 218) = (   0.3741670   0.3032347   0.5896625  )
       219           C   tau( 219) = (   0.3236381   0.3330130   0.5854984  )
       220           O   tau( 220) = (   0.2756023   0.3133476   0.5773717  )
       221           N   tau( 221) = (   0.3295623   0.3956792   0.5978812  )
       222           C   tau( 222) = (   0.3830586   0.4242455   0.5824675  )
       223           N   tau( 223) = (   0.3827545   0.4798990   0.5765064  )
       224           C   tau( 224) = (   0.4328338   0.3878832   0.5800080  )
       225           C   tau( 225) = (   0.4274386   0.3295924   0.5869779  )
       226           H   tau( 226) = (   0.4649342   0.3015220   0.5896167  )
       227           H   tau( 227) = (   0.4752044   0.4078130   0.5744895  )
       228           H   tau( 228) = (   0.3443286   0.4987548   0.5874898  )
       229           H   tau( 229) = (   0.4088234   0.5074055   0.5331313  )
       230           N   tau( 230) = (   0.3213795   0.4007931   0.6553851  )
       231           C   tau( 231) = (   0.3186296   0.3843416   0.7038264  )
       232           N   tau( 232) = (   0.2611021   0.2394992   0.6952621  )
       233           C   tau( 233) = (   0.2806549   0.2746316   0.7269009  )
       234           N   tau( 234) = (   0.4341486   0.2753725   0.7227962  )
       235           C   tau( 235) = (   0.3948254   0.2954546   0.7475414  )
       236           Fe  tau( 236) = (   0.3203131   0.3357993   0.7774540  )
       237           C   tau( 237) = (   0.2469273   0.3837443   0.7838444  )
       238           N   tau( 238) = (   0.2088242   0.4165239   0.7755124  )
       239           C   tau( 239) = (   0.3732252   0.3995410   0.8101640  )
       240           N   tau( 240) = (   0.4046578   0.4392256   0.8144039  )
       241           C   tau( 241) = (   0.2997897   0.2849481   0.8440955  )
       242           N   tau( 242) = (   0.2875185   0.2557293   0.8831459  )

   Crystallographic axes

     site n.     atom                  positions (cryst. coord.)
         1           O   tau(   1) = (  0.2222220  0.2777780  0.2104420  )
         2           O   tau(   2) = (  0.5555555  0.9444445  0.2104420  )
         3           O   tau(   3) = (  0.3888890  0.6111110  0.2104420  )
         4           O   tau(   4) = (  0.5555555  0.7777780  0.2104420  )
         5           O   tau(   5) = (  0.2222220  0.1111110  0.2104420  )
         6           O   tau(   6) = (  0.3888890  0.4444445  0.2104420  )
         7           O   tau(   7) = (  0.7222220  0.9444445  0.2104420  )
         8           O   tau(   8) = (  0.5555555  0.6111110  0.2104420  )
         9           O   tau(   9) = (  0.3888890  0.2777780  0.2104420  )
        10           O   tau(  10) = (  0.7222220  0.7777780  0.2104420  )
        11           O   tau(  11) = (  0.5555555  0.4444445  0.2104420  )
        12           O   tau(  12) = (  0.3888890  0.1111110  0.2104420  )
        13           O   tau(  13) = (  0.7222220  0.6111110  0.2104420  )
        14           O   tau(  14) = (  0.5555555  0.2777780  0.2104420  )
        15           O   tau(  15) = (  0.8888890  0.9444445  0.2104420  )
        16           O   tau(  16) = (  0.0555555  0.1111110  0.2104420  )
        17           O   tau(  17) = (  0.3888890  0.7777780  0.2104420  )
        18           O   tau(  18) = (  0.2222220  0.4444445  0.2104420  )
        19           O   tau(  19) = (  0.3888890  0.9444445  0.2104420  )
        20           O   tau(  20) = (  0.0555555  0.2777780  0.2104420  )
        21           O   tau(  21) = (  0.2222220  0.6111110  0.2104420  )
        22           O   tau(  22) = (  0.0555555  0.4444445  0.2104420  )
        23           O   tau(  23) = (  0.2222220  0.7777780  0.2104420  )
        24           O   tau(  24) = (  0.0555555  0.6111110  0.2104420  )
        25           O   tau(  25) = (  0.2222220  0.9444445  0.2104420  )
        26           O   tau(  26) = (  0.0555555  0.7777780  0.2104420  )
        27           O   tau(  27) = (  0.0555555  0.9444445  0.2104420  )
        28           O   tau(  28) = (  0.7222220  0.4444445  0.2104420  )
        29           O   tau(  29) = (  0.8888890  0.7777780  0.2104420  )
        30           O   tau(  30) = (  0.5555555  0.1111110  0.2104420  )
        31           O   tau(  31) = (  0.7222220  0.2777780  0.2104420  )
        32           O   tau(  32) = (  0.8888890  0.6111110  0.2104420  )
        33           O   tau(  33) = (  0.7222220  0.1111110  0.2104420  )
        34           O   tau(  34) = (  0.8888890  0.4444445  0.2104420  )
        35           O   tau(  35) = (  0.8888890  0.2777780  0.2104420  )
        36           O   tau(  36) = (  0.8888890  0.1111110  0.2104420  )
        37           Ce  tau(  37) = (  0.0000000  0.0000000  0.2367477  )
        38           Ce  tau(  38) = (  0.3333335  0.6666665  0.2367477  )
        39           Ce  tau(  39) = (  0.5000000  0.8333335  0.2367477  )
        40           Ce  tau(  40) = (  0.1666665  0.1666665  0.2367477  )
        41           Ce  tau(  41) = (  0.3333335  0.5000000  0.2367477  )
        42           Ce  tau(  42) = (  0.1666665  0.0000000  0.2367477  )
        43           Ce  tau(  43) = (  0.5000000  0.6666665  0.2367477  )
        44           Ce  tau(  44) = (  0.3333335  0.3333335  0.2367477  )
        45           Ce  tau(  45) = (  0.6666665  0.8333335  0.2367477  )
        46           Ce  tau(  46) = (  0.5000000  0.5000000  0.2367477  )
        47           Ce  tau(  47) = (  0.3333335  0.1666665  0.2367477  )
        48           Ce  tau(  48) = (  0.6666665  0.6666665  0.2367477  )
        49           Ce  tau(  49) = (  0.5000000  0.3333335  0.2367477  )
        50           Ce  tau(  50) = (  0.3333335  0.0000000  0.2367477  )
        51           Ce  tau(  51) = (  0.6666665  0.5000000  0.2367477  )
        52           Ce  tau(  52) = (  0.8333335  0.8333335  0.2367477  )
        53           Ce  tau(  53) = (  0.5000000  0.1666665  0.2367477  )
        54           Ce  tau(  54) = (  0.1666665  0.3333335  0.2367477  )
        55           Ce  tau(  55) = (  0.0000000  0.1666665  0.2367477  )
        56           Ce  tau(  56) = (  0.3333335  0.8333335  0.2367477  )
        57           Ce  tau(  57) = (  0.1666665  0.5000000  0.2367477  )
        58           Ce  tau(  58) = ( -0.0000000  0.3333335  0.2367477  )
        59           Ce  tau(  59) = (  0.1666665  0.6666665  0.2367477  )
        60           Ce  tau(  60) = (  0.0000000  0.5000000  0.2367477  )
        61           Ce  tau(  61) = (  0.1666665  0.8333335  0.2367477  )
        62           Ce  tau(  62) = (  0.0000000  0.6666665  0.2367477  )
        63           Ce  tau(  63) = (  0.6666665  0.3333335  0.2367477  )
        64           Ce  tau(  64) = (  0.5000000  0.0000000  0.2367477  )
        65           Ce  tau(  65) = (  0.8333335  0.6666665  0.2367477  )
        66           Ce  tau(  66) = (  1.0000000  0.8333335  0.2367477  )
        67           Ce  tau(  67) = (  0.6666665  0.1666665  0.2367477  )
        68           Ce  tau(  68) = (  0.8333335  0.5000000  0.2367477  )
        69           Ce  tau(  69) = (  0.6666665  0.0000000  0.2367477  )
        70           Ce  tau(  70) = (  0.8333335  0.3333335  0.2367477  )
        71           Ce  tau(  71) = (  0.8333335  0.1666665  0.2367477  )
        72           Ce  tau(  72) = (  0.8333335  0.0000000  0.2367477  )
        73           O   tau(  73) = (  0.2777780  0.5555555  0.2630533  )
        74           O   tau(  74) = (  0.1111110  0.0555555  0.2630533  )
        75           O   tau(  75) = (  0.4444445  0.7222220  0.2630533  )
        76           O   tau(  76) = (  0.2777780  0.3888890  0.2630533  )
        77           O   tau(  77) = (  0.6111110  0.8888890  0.2630533  )
        78           O   tau(  78) = (  0.4444445  0.5555555  0.2630533  )
        79           O   tau(  79) = (  0.2777780  0.2222220  0.2630533  )
        80           O   tau(  80) = (  0.6111110  0.7222220  0.2630533  )
        81           O   tau(  81) = (  0.4444445  0.3888890  0.2630533  )
        82           O   tau(  82) = (  0.2777780  0.0555555  0.2630533  )
        83           O   tau(  83) = (  0.6111110  0.5555555  0.2630533  )
        84           O   tau(  84) = (  0.7777780  0.8888890  0.2630533  )
        85           O   tau(  85) = (  0.4444445  0.2222220  0.2630533  )
        86           O   tau(  86) = (  0.6111110  0.3888890  0.2630533  )
        87           O   tau(  87) = (  0.4444445  0.0555555  0.2630533  )
        88           O   tau(  88) = (  0.7777780  0.7222220  0.2630533  )
        89           O   tau(  89) = (  0.1111110  0.2222220  0.2630533  )
        90           O   tau(  90) = (  0.4444445  0.8888890  0.2630533  )
        91           O   tau(  91) = (  0.2777780  0.7222220  0.2630533  )
        92           O   tau(  92) = (  0.1111110  0.3888890  0.2630533  )
        93           O   tau(  93) = (  0.2777780  0.8888890  0.2630533  )
        94           O   tau(  94) = (  0.1111110  0.5555555  0.2630533  )
        95           O   tau(  95) = (  0.1111110  0.7222220  0.2630533  )
        96           O   tau(  96) = (  0.1111110  0.8888890  0.2630533  )
        97           O   tau(  97) = (  0.9444445  0.8888890  0.2630533  )
        98           O   tau(  98) = (  0.6111110  0.2222220  0.2630533  )
        99           O   tau(  99) = (  0.7777780  0.5555555  0.2630533  )
       100           O   tau( 100) = (  0.6111110  0.0555555  0.2630533  )
       101           O   tau( 101) = (  0.9444445  0.7222220  0.2630533  )
       102           O   tau( 102) = (  0.7777780  0.3888890  0.2630533  )
       103           O   tau( 103) = (  0.9444445  0.5555555  0.2630533  )
       104           O   tau( 104) = (  0.7777780  0.2222220  0.2630533  )
       105           O   tau( 105) = (  0.9444445  0.3888890  0.2630533  )
       106           O   tau( 106) = (  0.7777780  0.0555555  0.2630533  )
       107           O   tau( 107) = (  0.9444445  0.2222220  0.2630533  )
       108           O   tau( 108) = (  0.9444445  0.0555555  0.2630533  )
       109           O   tau( 109) = (  0.5001047  0.8330124  0.3147089  )
       110           O   tau( 110) = (  0.5005916  0.3336786  0.3148876  )
       111           O   tau( 111) = ( -0.0000353  0.3333776  0.3145814  )
       112           O   tau( 112) = ( -0.0006218  0.8327807  0.3147204  )
       113           O   tau( 113) = (  0.5004398  0.6663910  0.3147267  )
       114           O   tau( 114) = (  0.5003185  0.1670822  0.3147962  )
       115           O   tau( 115) = ( -0.0000007  0.1667423  0.3146073  )
       116           O   tau( 116) = ( -0.0002503  0.6666725  0.3146424  )
       117           O   tau( 117) = (  0.1666510  0.3333385  0.3145880  )
       118           O   tau( 118) = (  0.6668689  0.8326370  0.3147535  )
       119           O   tau( 119) = (  0.1663952  0.8331487  0.3147444  )
       120           O   tau( 120) = (  0.6665045  0.3332812  0.3146814  )
       121           O   tau( 121) = (  0.3336350  0.5001139  0.3147826  )
       122           O   tau( 122) = (  0.3332861 -0.0000864  0.3147973  )
       123           O   tau( 123) = (  0.8347376  0.5002432  0.3143876  )
       124           O   tau( 124) = (  0.8334159 -0.0001063  0.3147290  )
       125           O   tau( 125) = ( -0.0000896 -0.0001168  0.3146851  )
       126           O   tau( 126) = (  0.4999944  0.4989876  0.3150636  )
       127           O   tau( 127) = (  0.0001274  0.4999650  0.3145872  )
       128           O   tau( 128) = (  0.5000984 -0.0000750  0.3146716  )
       129           O   tau( 129) = (  0.1664327 -0.0001948  0.3147032  )
       130           O   tau( 130) = (  0.6675673  0.5015246  0.3151447  )
       131           O   tau( 131) = (  0.1666791  0.4999851  0.3146190  )
       132           O   tau( 132) = (  0.6667728 -0.0000946  0.3147026  )
       133           O   tau( 133) = (  0.3332624  0.3334610  0.3146096  )
       134           O   tau( 134) = (  0.8333228  0.8332972  0.3146662  )
       135           O   tau( 135) = (  0.3334016  0.8332314  0.3146022  )
       136           O   tau( 136) = (  0.8334958  0.3331472  0.3146368  )
       137           O   tau( 137) = (  0.3330250  0.1658961  0.3144248  )
       138           O   tau( 138) = (  0.3335878  0.6667363  0.3147005  )
       139           O   tau( 139) = (  0.8302490  0.6653876  0.3159263  )
       140           O   tau( 140) = (  0.8332788  0.1667805  0.3146957  )
       141           O   tau( 141) = (  0.1665891  0.1665285  0.3145458  )
       142           O   tau( 142) = (  0.6688238  0.6650695  0.3159538  )
       143           O   tau( 143) = (  0.1667126  0.6666661  0.3145566  )
       144           O   tau( 144) = (  0.6668241  0.1668111  0.3146142  )
       145           Ce  tau( 145) = (  0.4444515  0.7221594  0.3416271  )
       146           Ce  tau( 146) = (  0.4436419  0.2212122  0.3412710  )
       147           Ce  tau( 147) = (  0.9448927  0.7224782  0.3415977  )
       148           Ce  tau( 148) = (  0.9445127  0.2223285  0.3416378  )
       149           Ce  tau( 149) = (  0.4444934  0.8888099  0.3415374  )
       150           Ce  tau( 150) = (  0.4430552  0.3874772  0.3423403  )
       151           Ce  tau( 151) = (  0.9449483  0.8896899  0.3413702  )
       152           Ce  tau( 152) = (  0.9448408  0.3886358  0.3415668  )
       153           Ce  tau( 153) = (  0.6111660  0.8889059  0.3417162  )
       154           Ce  tau( 154) = (  0.6112428  0.3879352  0.3407061  )
       155           Ce  tau( 155) = (  0.1112181  0.3888753  0.3416780  )
       156           Ce  tau( 156) = (  0.1111507  0.8889751  0.3416444  )
       157           Ce  tau( 157) = (  0.4435366  0.5548175  0.3418146  )
       158           Ce  tau( 158) = (  0.4444302  0.0553417  0.3417833  )
       159           Ce  tau( 159) = (  0.9455284  0.5553797  0.3415475  )
       160           Ce  tau( 160) = (  0.9447225  0.0559623  0.3416833  )
       161           Ce  tau( 161) = (  0.2773806  0.3884639  0.3416778  )
       162           Ce  tau( 162) = (  0.7783425  0.8897216  0.3414320  )
       163           Ce  tau( 163) = (  0.2778709  0.8889550  0.3416035  )
       164           Ce  tau( 164) = (  0.7789313  0.3884899  0.3413748  )
       165           Ce  tau( 165) = (  0.2775794  0.0554088  0.3416455  )
       166           Ce  tau( 166) = (  0.2777424  0.5554377  0.3417596  )
       167           Ce  tau( 167) = (  0.7802353  0.5544763  0.3413221  )
       168           Ce  tau( 168) = (  0.7778213  0.0556608  0.3416194  )
       169           Ce  tau( 169) = (  0.1111544  0.2223235  0.3416438  )
       170           Ce  tau( 170) = (  0.6112125  0.7222358  0.3416249  )
       171           Ce  tau( 171) = (  0.1114403  0.7223185  0.3415772  )
       172           Ce  tau( 172) = (  0.6111914  0.2218311  0.3416730  )
       173           Ce  tau( 173) = (  0.1112343  0.0556242  0.3416392  )
       174           Ce  tau( 174) = (  0.6087121  0.5536744  0.3409931  )
       175           Ce  tau( 175) = (  0.1113752  0.5554409  0.3416348  )
       176           Ce  tau( 176) = (  0.6112606  0.0555699  0.3416423  )
       177           Ce  tau( 177) = (  0.2772267  0.2217409  0.3415517  )
       178           Ce  tau( 178) = (  0.7792083  0.7246240  0.3423531  )
       179           Ce  tau( 179) = (  0.2778457  0.7221864  0.3416007  )
       180           Ce  tau( 180) = (  0.7778044  0.2219762  0.3416275  )
       181           O   tau( 181) = (  0.3891103  0.4447142  0.3673539  )
       182           O   tau( 182) = (  0.8886496  0.9440804  0.3679943  )
       183           O   tau( 183) = (  0.3891170  0.9444919  0.3678559  )
       184           O   tau( 184) = (  0.8893445  0.4444592  0.3679799  )
       185           O   tau( 185) = (  0.3893519  0.6110942  0.3678665  )
       186           O   tau( 186) = (  0.3893535  0.1114673  0.3677755  )
       187           O   tau( 187) = (  0.8883887  0.6106684  0.3678505  )
       188           O   tau( 188) = (  0.8888171  0.1109776  0.3678566  )
       189           O   tau( 189) = (  0.7223110  0.9441086  0.3680009  )
       190           O   tau( 190) = (  0.2221726  0.4444323  0.3678896  )
       191           O   tau( 191) = (  0.2220260  0.9441861  0.3678242  )
       192           O   tau( 192) = (  0.7253094  0.4452984  0.3664220  )
       193           O   tau( 193) = (  0.5561653  0.7773069  0.3679999  )
       194           O   tau( 194) = (  0.5563253  0.2783063  0.3688679  )
       195           O   tau( 195) = (  0.0554954  0.2778197  0.3678351  )
       196           O   tau( 196) = (  0.0547012  0.7772997  0.3679826  )
       197           O   tau( 197) = (  0.5557642  0.9444472  0.3679856  )
       198           O   tau( 198) = (  0.5570382  0.4439302  0.3676726  )
       199           O   tau( 199) = (  0.0554482  0.4444570  0.3680332  )
       200           O   tau( 200) = (  0.0551216  0.9440946  0.3679151  )
       201           O   tau( 201) = (  0.3882825  0.2765283  0.3659070  )
       202           O   tau( 202) = (  0.3892180  0.7776821  0.3679290  )
       203           O   tau( 203) = (  0.8878572  0.7772086  0.3680772  )
       204           O   tau( 204) = (  0.8887388  0.2778918  0.3681035  )
       205           O   tau( 205) = (  0.5569791  0.6102977  0.3681929  )
       206           O   tau( 206) = (  0.0553848  0.1109025  0.3678682  )
       207           O   tau( 207) = (  0.0555243  0.6110754  0.3679650  )
       208           O   tau( 208) = (  0.5557860  0.1114041  0.3679814  )
       209           O   tau( 209) = (  0.2220368  0.2778798  0.3676907  )
       210           O   tau( 210) = (  0.7226327  0.7767560  0.3681202  )
       211           O   tau( 211) = (  0.2221208  0.7776342  0.3679116  )
       212           O   tau( 212) = (  0.7219949  0.2779597  0.3680285  )
       213           O   tau( 213) = (  0.2219999  0.1107649  0.3677875  )
       214           O   tau( 214) = (  0.7218954  0.6068214  0.3778272  )
       215           O   tau( 215) = (  0.2222214  0.6110562  0.3679127  )
       216           O   tau( 216) = (  0.7222431  0.1111593  0.3680995  )
       217           H   tau( 217) = (  0.5204469  0.2981389  0.4575714  )
       218           N   tau( 218) = (  0.5492396  0.3501453  0.4559354  )
       219           C   tau( 219) = (  0.5159033  0.3845303  0.4527156  )
       220           O   tau( 220) = (  0.4565136  0.3618226  0.4464320  )
       221           N   tau( 221) = (  0.5580079  0.4568910  0.4622902  )
       222           C   tau( 222) = (  0.6279970  0.4898766  0.4503721  )
       223           N   tau( 223) = (  0.6598244  0.5541396  0.4457630  )
       224           C   tau( 224) = (  0.6567783  0.4478889  0.4484705  )
       225           C   tau( 225) = (  0.6177289  0.3805806  0.4538597  )
       226           H   tau( 226) = (  0.6390181  0.3481677  0.4559000  )
       227           H   tau( 227) = (  0.7106555  0.4709019  0.4442035  )
       228           H   tau( 228) = (  0.6322850  0.5759125  0.4542555  )
       229           H   tau( 229) = (  0.7017742  0.5859015  0.4122247  )
       230           N   tau( 230) = (  0.5527776  0.4627961  0.5067531  )
       231           C   tau( 231) = (  0.5405293  0.4437995  0.5442086  )
       232           N   tau( 232) = (  0.3993771  0.2765499  0.5375865  )
       233           C   tau( 233) = (  0.4392136  0.3171172  0.5620501  )
       234           N   tau( 234) = (  0.5931350  0.3179728  0.5588763  )
       235           C   tau( 235) = (  0.5654062  0.3411616  0.5780097  )
       236           Fe  tau( 236) = (  0.5141870  0.3877477  0.6011385  )
       237           C   tau( 237) = (  0.4684823  0.4431098  0.6060796  )
       238           N   tau( 238) = (  0.4493044  0.4809604  0.5996372  )
       239           C   tau( 239) = (  0.6039003  0.4613502  0.6264303  )
       240           N   tau( 240) = (  0.6582449  0.5071741  0.6297086  )
       241           C   tau( 241) = (  0.4643047  0.3290298  0.6526666  )
       242           N   tau( 242) = (  0.4351639  0.2952907  0.6828610  )

     number of k points=     1  Methfessel-Paxton smearing, width (Ry)=  0.0200
                       cart. coord. in units 2pi/alat
        k(    1) = (   0.0000000   0.0000000   0.0000000), wk =   1.0000000

                       cryst. coord.
        k(    1) = (   0.0000000   0.0000000   0.0000000), wk =   1.0000000

     Dense  grid:  4559640 G-vectors     FFT dimensions: ( 250, 250, 324)

     Smooth grid:  1612213 G-vectors     FFT dimensions: ( 180, 180, 240)

     Dynamical RAM for                 wfc:      42.69 MB

     Dynamical RAM for     wfc (w. buffer):      42.69 MB

     Dynamical RAM for             U proj.:      10.87 MB

     Dynamical RAM for  U proj. (w. buff.):      10.87 MB

     Dynamical RAM for           str. fact:       2.90 MB

     Dynamical RAM for           local pot:       0.00 MB

     Dynamical RAM for          nlocal pot:      77.79 MB

     Dynamical RAM for                qrad:      20.67 MB

     Dynamical RAM for          rho,v,vnew:      11.48 MB

     Dynamical RAM for           G-vectors:       1.90 MB

     Dynamical RAM for          h,s,v(r/c):       2.54 MB

     Dynamical RAM for          <psi|beta>:      55.60 MB

     Dynamical RAM for                 psi:      85.39 MB

     Dynamical RAM for                hpsi:      85.39 MB

     Dynamical RAM for                spsi:      85.39 MB

     Dynamical RAM for      wfcinit/wfcrot:     330.15 MB

     Dynamical RAM for           addusdens:     338.70 MB

     Estimated static dynamical RAM per process >     180.26 MB

     Estimated max dynamical RAM per process >     518.97 MB

     Estimated total dynamical RAM >      72.98 GB

     Atomic positions and unit cell read from directory:
     ./out/aiida.save/
 

     Check: negative core charge=   -0.000004
     Generating pointlists ...
     new r_m :   0.0202 (alat units)  0.8859 (a.u.) for type    1
     new r_m :   0.0412 (alat units)  1.8041 (a.u.) for type    2
     new r_m :   0.0182 (alat units)  0.7990 (a.u.) for type    3
     new r_m :   0.0182 (alat units)  0.7990 (a.u.) for type    4
     new r_m :   0.0194 (alat units)  0.8483 (a.u.) for type    5
     new r_m :   0.0356 (alat units)  1.5605 (a.u.) for type    6

     The potential is recalculated from file :
     ./out/aiida.save/charge-density


     negative rho (up, down):  7.497E-02 1.083E-01

     HUBBARD ENERGY =   11.4408  (Ry)
     Number of +U iterations with fixed ns =  0
     Starting occupations:

     Hubbard parameters (eV):
     U(  2) =  5.0000
     U(  6) =  6.0000

     ================= HUBBARD OCCUPATIONS ================
     --------------------- ATOM   37 ----------------------
     Tr[ns] (up, down, total) =   0.48781  0.48792  0.97573
     Atomic magnetic moment =  -0.00011
     SPIN  1
     eigenvalues:
       0.029  0.035  0.035  0.039  0.068  0.068  0.214
     eigenvectors (columns):
      -0.827 -0.007  0.005  0.001  0.001 -0.001  0.562
       0.007 -0.951 -0.200 -0.002  0.221 -0.077  0.000
      -0.007  0.200 -0.951 -0.006 -0.077 -0.223  0.000
       0.003 -0.048  0.231 -0.000 -0.320 -0.918  0.001
      -0.001  0.229  0.048 -0.001  0.918 -0.320 -0.001
      -0.001  0.000  0.006 -1.000 -0.001  0.002  0.000
       0.562  0.005 -0.003 -0.000  0.001  0.001  0.827
     occupation matrix ns (before diag.):
       0.087  0.000  0.000  0.000 -0.000  0.000  0.086
       0.000  0.037  0.000  0.000  0.007 -0.000  0.000
       0.000  0.000  0.037  0.008  0.000  0.000  0.000
       0.000  0.000  0.008  0.066  0.000 -0.000  0.000
      -0.000  0.007  0.000  0.000  0.066 -0.000 -0.000
       0.000 -0.000  0.000 -0.000 -0.000  0.039  0.000
       0.086  0.000  0.000  0.000 -0.000  0.000  0.156
     SPIN  2
     eigenvalues:
       0.029  0.035  0.035  0.039  0.068  0.068  0.215
     eigenvectors (columns):
      -0.827 -0.006  0.006  0.001 -0.000 -0.000  0.563
       0.006 -0.958 -0.168 -0.002 -0.218  0.086 -0.000
      -0.008  0.168 -0.957 -0.005  0.086  0.219  0.001
       0.003 -0.040  0.232  0.000  0.355  0.905  0.002
      -0.002  0.231  0.040 -0.001 -0.905  0.355 -0.001
      -0.001  0.001  0.005 -1.000  0.001 -0.002  0.000
       0.563  0.004 -0.003 -0.000 -0.001 -0.002  0.827
     occupation matrix ns (before diag.):
       0.088  0.000  0.000  0.000 -0.000  0.000  0.086
       0.000  0.037  0.000  0.000  0.007 -0.000 -0.000
       0.000  0.000  0.037  0.008  0.000  0.000  0.000
       0.000  0.000  0.008  0.066  0.000 -0.000  0.000
      -0.000  0.007  0.000  0.000  0.066 -0.000 -0.000
       0.000 -0.000  0.000 -0.000 -0.000  0.039  0.000
       0.086 -0.000  0.000  0.000 -0.000  0.000  0.156
     --------------------- ATOM   38 ----------------------
     Tr[ns] (up, down, total) =   0.48694  0.48746  0.97440
     Atomic magnetic moment =  -0.00052
     SPIN  1
     eigenvalues:
       0.029  0.035  0.035  0.039  0.068  0.068  0.213
     eigenvectors (columns):
       0.827  0.006 -0.007  0.000  0.001 -0.001  0.562
       0.010 -0.342  0.910  0.001 -0.034  0.231  0.000
       0.003 -0.910 -0.342  0.005  0.232  0.034 -0.000
      -0.001  0.219  0.082 -0.000  0.962  0.141 -0.000
      -0.001  0.082 -0.219  0.000 -0.141  0.962  0.000
       0.000 -0.005 -0.000 -1.000  0.001  0.000  0.000
      -0.562 -0.004  0.005  0.000 -0.000  0.000  0.827
     occupation matrix ns (before diag.):
       0.087 -0.000 -0.000  0.000  0.000  0.000  0.086
      -0.000  0.037 -0.000  0.000  0.007 -0.000  0.000
      -0.000 -0.000  0.037  0.007  0.000 -0.000 -0.000
       0.000  0.000  0.007  0.066 -0.000  0.000 -0.000
       0.000  0.007  0.000 -0.000  0.066  0.000  0.000
       0.000 -0.000 -0.000  0.000  0.000  0.039  0.000
       0.086  0.000 -0.000 -0.000  0.000  0.000  0.155
     SPIN  2
     eigenvalues:
       0.029  0.035  0.035  0.039  0.068  0.068  0.214
     eigenvectors (columns):
       0.827 -0.005  0.006 -0.000  0.000 -0.001  0.562
       0.010  0.415 -0.879 -0.002 -0.157  0.173  0.000
       0.003  0.879  0.414 -0.004 -0.174 -0.158 -0.001
      -0.001 -0.213 -0.100  0.000 -0.721 -0.652 -0.001
      -0.001 -0.099  0.211 -0.000 -0.652  0.722  0.000
       0.000  0.005 -0.000  1.000 -0.001  0.000  0.000
      -0.562  0.005 -0.004  0.000 -0.001  0.000  0.827
     occupation matrix ns (before diag.):
       0.087 -0.000 -0.000 -0.000 -0.000  0.000  0.086
      -0.000  0.037 -0.000  0.000  0.007 -0.000  0.000
      -0.000 -0.000  0.037  0.008 -0.000 -0.000 -0.000
      -0.000  0.000  0.008  0.066 -0.000  0.000 -0.000
      -0.000  0.007 -0.000 -0.000  0.066  0.000  0.000
       0.000 -0.000 -0.000  0.000  0.000  0.039  0.000
       0.086  0.000 -0.000 -0.000  0.000  0.000  0.156
     --------------------- ATOM   39 ----------------------
     Tr[ns] (up, down, total) =   0.48741  0.48675  0.97416
     Atomic magnetic moment =   0.00067
     SPIN  1
     eigenvalues:
       0.029  0.035  0.035  0.039  0.068  0.068  0.214
     eigenvectors (columns):
       0.827  0.005 -0.016  0.000 -0.002  0.001  0.561
       0.015  0.434  0.870 -0.004  0.227  0.058 -0.000
      -0.014  0.870 -0.434 -0.003 -0.058  0.227  0.000
       0.001 -0.209  0.105  0.001 -0.242  0.942  0.001
      -0.001 -0.105 -0.209  0.000  0.942  0.242 -0.000
      -0.000  0.005  0.003  1.000  0.001  0.000 -0.000
      -0.561 -0.003  0.011 -0.000  0.002 -0.001  0.828
     occupation matrix ns (before diag.):
       0.087 -0.000  0.000  0.000 -0.000 -0.000  0.086
      -0.000  0.037 -0.000  0.000  0.007 -0.000 -0.000
       0.000 -0.000  0.037  0.007  0.000 -0.000 -0.000
       0.000  0.000  0.007  0.066  0.000  0.000  0.000
      -0.000  0.007  0.000  0.000  0.066  0.000 -0.000
      -0.000 -0.000 -0.000  0.000  0.000  0.039 -0.000
       0.086 -0.000 -0.000  0.000 -0.000 -0.000  0.156
     SPIN  2
     eigenvalues:
       0.029  0.035  0.035  0.039  0.068  0.068  0.213
     eigenvectors (columns):
      -0.827 -0.002  0.013 -0.000  0.002 -0.001  0.562
      -0.013 -0.497 -0.835 -0.001 -0.231 -0.040 -0.000
       0.010 -0.835  0.497 -0.005  0.040 -0.231  0.001
      -0.001  0.201 -0.119 -0.000  0.164 -0.958  0.001
       0.001  0.120  0.201  0.000 -0.958 -0.164  0.000
      -0.000 -0.005  0.002  1.000  0.000 -0.001 -0.000
       0.562  0.002 -0.010  0.000 -0.001  0.001  0.827
     occupation matrix ns (before diag.):
       0.087 -0.000  0.000  0.000 -0.000 -0.000  0.086
      -0.000  0.037 -0.000  0.000  0.007 -0.000  0.000
       0.000 -0.000  0.037  0.007  0.000 -0.000  0.000
       0.000  0.000  0.007  0.066  0.000  0.000  0.000
      -0.000  0.007  0.000  0.000  0.066  0.000  0.000
      -0.000 -0.000 -0.000  0.000  0.000  0.039 -0.000
       0.086  0.000  0.000  0.000  0.000 -0.000  0.155
     --------------------- ATOM   40 ----------------------
     Tr[ns] (up, down, total) =   0.48729  0.48839  0.97568
     Atomic magnetic moment =  -0.00110
     SPIN  1
     eigenvalues:
       0.029  0.035  0.035  0.039  0.068  0.068  0.214
     eigenvectors (columns):
       0.826 -0.005  0.009  0.000 -0.000 -0.000  0.563
      -0.010 -0.868  0.437 -0.001 -0.222  0.082 -0.000
      -0.008  0.437  0.868 -0.004  0.082  0.222  0.001
       0.001 -0.106 -0.211 -0.001  0.337  0.911  0.001
       0.004  0.211 -0.107 -0.002 -0.911  0.337 -0.002
       0.000 -0.001 -0.004 -1.000  0.001 -0.002  0.000
      -0.563  0.003 -0.007 -0.000 -0.002 -0.001  0.826
     occupation matrix ns (before diag.):
       0.088  0.000  0.000  0.000 -0.000  0.000  0.086
       0.000  0.037  0.000  0.000  0.007 -0.000 -0.000
       0.000  0.000  0.037  0.008  0.000  0.000  0.000
       0.000  0.000  0.008  0.066  0.000 -0.000  0.000
      -0.000  0.007  0.000  0.000  0.066 -0.000 -0.000
       0.000 -0.000  0.000 -0.000 -0.000  0.039  0.000
       0.086 -0.000  0.000  0.000 -0.000  0.000  0.155
     SPIN  2
     eigenvalues:
       0.029  0.035  0.035  0.039  0.068  0.068  0.215
     eigenvectors (columns):
      -0.826 -0.004 -0.010 -0.000  0.001  0.000  0.563
       0.010 -0.842 -0.485  0.001  0.213  0.103 -0.000
       0.008  0.485 -0.842  0.005 -0.102  0.213  0.001
      -0.001 -0.118  0.205  0.001 -0.421  0.876  0.001
      -0.003  0.205  0.118  0.002  0.876  0.420 -0.002
      -0.000 -0.002  0.004  1.000 -0.001 -0.002  0.000
       0.563  0.003  0.008 -0.000  0.002 -0.000  0.826
     occupation matrix ns (before diag.):
       0.088  0.000  0.000  0.000 -0.000  0.000  0.087
       0.000  0.037  0.000  0.000  0.008 -0.000 -0.000
       0.000  0.000  0.037  0.008  0.000  0.000  0.000
       0.000  0.000  0.008  0.066  0.000 -0.000  0.000
      -0.000  0.008  0.000  0.000  0.066 -0.000 -0.000
       0.000 -0.000  0.000 -0.000 -0.000  0.039  0.000
       0.087 -0.000  0.000  0.000 -0.000  0.000  0.156
     --------------------- ATOM   41 ----------------------
     Tr[ns] (up, down, total) =   0.48706  0.48857  0.97562
     Atomic magnetic moment =  -0.00151
     SPIN  1
     eigenvalues:
       0.029  0.035  0.035  0.039  0.068  0.068  0.214
     eigenvectors (columns):
      -0.827  0.010 -0.007  0.002 -0.001  0.000  0.562
      -0.002 -0.673 -0.702  0.003  0.218  0.083 -0.000
      -0.015 -0.701  0.673  0.001  0.085 -0.221 -0.001
       0.002  0.171 -0.163  0.001  0.348 -0.907 -0.001
      -0.001  0.162  0.168 -0.002  0.908  0.348 -0.001
      -0.002 -0.003 -0.002 -1.000 -0.000 -0.002  0.000
       0.562 -0.007  0.006 -0.001  0.002 -0.001  0.827
     occupation matrix ns (before diag.):
       0.087 -0.000 -0.000 -0.000 -0.000  0.000  0.086
      -0.000  0.037 -0.000  0.000  0.007 -0.000  0.000
      -0.000 -0.000  0.037  0.008 -0.000  0.000 -0.000
      -0.000  0.000  0.008  0.066 -0.000  0.000 -0.000
      -0.000  0.007 -0.000 -0.000  0.066 -0.000 -0.000
       0.000 -0.000  0.000  0.000 -0.000  0.039  0.000
       0.086  0.000 -0.000 -0.000 -0.000  0.000  0.155
     SPIN  2
     eigenvalues:
       0.029  0.035  0.035  0.039  0.068  0.068  0.215
     eigenvectors (columns):
      -0.827  0.009 -0.006  0.002 -0.000  0.001  0.562
      -0.003 -0.700 -0.675  0.003  0.218  0.084 -0.000
      -0.013 -0.674  0.700  0.001  0.085 -0.220 -0.000
       0.002  0.164 -0.169  0.001  0.352 -0.906 -0.000
      -0.000  0.168  0.163 -0.002  0.906  0.352 -0.001
      -0.002 -0.003 -0.002 -1.000 -0.001 -0.001  0.000
       0.562 -0.007  0.004 -0.001  0.002 -0.000  0.827
     occupation matrix ns (before diag.):
       0.088 -0.000 -0.000 -0.000 -0.000  0.000  0.087
      -0.000  0.037 -0.000  0.000  0.007 -0.000 -0.000
      -0.000 -0.000  0.037  0.008 -0.000  0.000  0.000
      -0.000  0.000  0.008  0.066 -0.000  0.000 -0.000
      -0.000  0.007 -0.000 -0.000  0.066 -0.000 -0.000
       0.000 -0.000  0.000  0.000 -0.000  0.039  0.000
       0.087 -0.000  0.000 -0.000 -0.000  0.000  0.156
     --------------------- ATOM   42 ----------------------
     Tr[ns] (up, down, total) =   0.48879  0.48674  0.97553
     Atomic magnetic moment =   0.00205
     SPIN  1
     eigenvalues:
       0.029  0.035  0.035  0.039  0.068  0.068  0.215
     eigenvectors (columns):
      -0.827  0.006  0.008  0.001  0.001 -0.001  0.562
       0.010  0.872  0.429  0.001  0.220 -0.084 -0.001
       0.006 -0.429  0.872 -0.003 -0.084 -0.221  0.001
       0.000  0.104 -0.212 -0.002 -0.345 -0.908  0.001
      -0.001 -0.211 -0.104 -0.003  0.909 -0.345 -0.001
      -0.001  0.003 -0.001 -1.000 -0.001  0.004  0.000
       0.562 -0.003 -0.006 -0.000  0.001  0.002  0.827
     occupation matrix ns (before diag.):
       0.088 -0.000  0.000  0.000 -0.000  0.000  0.087
      -0.000  0.037  0.000  0.000  0.008 -0.000 -0.000
       0.000  0.000  0.037  0.008  0.000 -0.000  0.000
       0.000  0.000  0.008  0.066  0.000 -0.000  0.000
      -0.000  0.008  0.000  0.000  0.066 -0.000 -0.000
       0.000 -0.000 -0.000 -0.000 -0.000  0.039  0.000
       0.087 -0.000  0.000  0.000 -0.000  0.000  0.156
     SPIN  2
     eigenvalues:
       0.029  0.035  0.035  0.039  0.068  0.068  0.214
     eigenvectors (columns):
      -0.826  0.005  0.007  0.001  0.001 -0.001  0.563
       0.009  0.879  0.415  0.001  0.225 -0.068 -0.000
       0.006 -0.415  0.879 -0.001 -0.067 -0.226  0.001
       0.000  0.100 -0.213 -0.003 -0.279 -0.931  0.001
      -0.001 -0.212 -0.100 -0.003  0.931 -0.279 -0.001
      -0.001  0.002  0.000 -1.000 -0.002  0.003  0.000
       0.563 -0.003 -0.006 -0.000  0.001  0.002  0.826
     occupation matrix ns (before diag.):
       0.087  0.000  0.000  0.000 -0.000  0.000  0.086
       0.000  0.037  0.000  0.000  0.007 -0.000 -0.000
       0.000  0.000  0.037  0.008  0.000 -0.000  0.000
       0.000  0.000  0.008  0.066  0.000 -0.000  0.000
      -0.000  0.007  0.000  0.000  0.066 -0.000 -0.000
       0.000 -0.000 -0.000 -0.000 -0.000  0.039  0.000
       0.086 -0.000  0.000  0.000 -0.000  0.000  0.155
     --------------------- ATOM   43 ----------------------
     Tr[ns] (up, down, total) =   0.48502  0.49068  0.97570
     Atomic magnetic moment =  -0.00567
     SPIN  1
     eigenvalues:
       0.029  0.035  0.035  0.038  0.067  0.068  0.212
     eigenvectors (columns):
      -0.825  0.012 -0.023  0.003 -0.006  0.000  0.564
      -0.032 -0.244  0.941  0.008  0.231 -0.042  0.000
       0.009  0.940  0.244  0.010 -0.042 -0.234  0.002
       0.001 -0.230 -0.061 -0.003 -0.169 -0.956  0.002
       0.002  0.060 -0.227 -0.006  0.957 -0.170  0.002
      -0.003  0.008  0.012 -1.000 -0.003  0.001  0.001
       0.564 -0.010  0.016 -0.001  0.002  0.003  0.826
     occupation matrix ns (before diag.):
       0.087 -0.000  0.000  0.000  0.000  0.000  0.085
      -0.000  0.037  0.000  0.000  0.007 -0.000  0.000
       0.000  0.000  0.037  0.008 -0.000 -0.000  0.000
       0.000  0.000  0.008  0.066  0.000 -0.000  0.000
       0.000  0.007 -0.000  0.000  0.066 -0.000  0.000
       0.000 -0.000 -0.000 -0.000 -0.000  0.038  0.000
       0.085  0.000  0.000  0.000  0.000  0.000  0.154
     SPIN  2
     eigenvalues:
       0.029  0.035  0.035  0.039  0.068  0.068  0.217
     eigenvectors (columns):
       0.826  0.002 -0.026  0.003 -0.005 -0.001  0.563
       0.031  0.284  0.929  0.011  0.232 -0.036 -0.001
      -0.012  0.929 -0.283  0.011 -0.037 -0.236  0.001
      -0.000 -0.229  0.069 -0.003 -0.146 -0.960  0.001
      -0.002 -0.068 -0.225 -0.005  0.961 -0.146  0.001
       0.003  0.014  0.008 -1.000 -0.003  0.001  0.001
      -0.563 -0.001  0.019 -0.001  0.003  0.002  0.826
     occupation matrix ns (before diag.):
       0.089 -0.000  0.000  0.000 -0.000  0.000  0.087
      -0.000  0.037 -0.000  0.000  0.007 -0.000  0.000
       0.000 -0.000  0.037  0.008 -0.000 -0.000  0.000
       0.000  0.000  0.008  0.066  0.000 -0.000  0.000
      -0.000  0.007 -0.000  0.000  0.066 -0.000  0.000
       0.000 -0.000 -0.000 -0.000 -0.000  0.039  0.000
       0.087  0.000  0.000  0.000  0.000  0.000  0.157
     --------------------- ATOM   44 ----------------------
     Tr[ns] (up, down, total) =   0.48974  0.48834  0.97808
     Atomic magnetic moment =   0.00140
     SPIN  1
     eigenvalues:
       0.029  0.035  0.035  0.038  0.067  0.068  0.217
     eigenvectors (columns):
      -0.824 -0.010  0.041  0.001 -0.001  0.006  0.565
       0.048 -0.531  0.809  0.002 -0.132  0.210 -0.000
       0.016  0.813  0.529 -0.005  0.200  0.139 -0.001
      -0.003 -0.200 -0.138 -0.003  0.809  0.535 -0.003
      -0.009  0.131 -0.210  0.002 -0.537  0.807 -0.004
      -0.001 -0.004 -0.001 -1.000 -0.005 -0.000  0.000
       0.564  0.008 -0.029 -0.000  0.001  0.003  0.825
     occupation matrix ns (before diag.):
       0.089  0.000  0.000 -0.000 -0.000  0.000  0.087
       0.000  0.037  0.000  0.000  0.008  0.000 -0.000
       0.000  0.000  0.037  0.008  0.000 -0.000 -0.000
      -0.000  0.000  0.008  0.065  0.000 -0.000 -0.000
      -0.000  0.008  0.000  0.000  0.066  0.000 -0.001
       0.000  0.000 -0.000 -0.000  0.000  0.038  0.000
       0.087 -0.000 -0.000 -0.000 -0.001  0.000  0.157
     SPIN  2
     eigenvalues:
       0.029  0.035  0.035  0.038  0.067  0.068  0.216
     eigenvectors (columns):
      -0.825  0.011 -0.033  0.001 -0.001  0.006  0.564
       0.040  0.566 -0.787 -0.001 -0.133  0.206 -0.002
       0.012 -0.789 -0.565 -0.004  0.199  0.137 -0.002
      -0.003  0.194  0.144 -0.003  0.808  0.537 -0.004
      -0.007 -0.140  0.200  0.002 -0.538  0.807 -0.006
      -0.001  0.002  0.003 -1.000 -0.004 -0.001  0.000
       0.563 -0.008  0.022 -0.001  0.001  0.005  0.826
     occupation matrix ns (before diag.):
       0.088  0.000 -0.000 -0.000 -0.000  0.000  0.087
       0.000  0.037  0.000  0.000  0.008  0.000 -0.000
      -0.000  0.000  0.037  0.008  0.000 -0.000 -0.000
      -0.000  0.000  0.008  0.065  0.000 -0.000 -0.001
      -0.000  0.008  0.000  0.000  0.066  0.000 -0.001
       0.000  0.000 -0.000 -0.000  0.000  0.038  0.000
       0.087 -0.000 -0.000 -0.001 -0.001  0.000  0.156
     --------------------- ATOM   45 ----------------------
     Tr[ns] (up, down, total) =   0.48896  0.48659  0.97555
     Atomic magnetic moment =   0.00237
     SPIN  1
     eigenvalues:
       0.029  0.035  0.035  0.039  0.068  0.068  0.216
     eigenvectors (columns):
      -0.826  0.023  0.029 -0.003  0.005 -0.004  0.562
      -0.028  0.223 -0.945  0.004 -0.028  0.235  0.000
       0.035  0.945  0.223  0.012  0.233  0.031 -0.002
      -0.004 -0.229 -0.054 -0.005  0.965  0.117 -0.002
       0.003 -0.057  0.230  0.003 -0.118  0.964  0.002
       0.004  0.013 -0.001 -1.000 -0.002  0.004 -0.001
       0.562 -0.015 -0.020  0.001 -0.000  0.001  0.827
     occupation matrix ns (before diag.):
       0.088 -0.000  0.000 -0.000  0.000 -0.000  0.087
      -0.000  0.037 -0.000  0.000  0.008  0.000  0.000
       0.000 -0.000  0.037  0.007  0.000 -0.000 -0.000
      -0.000  0.000  0.007  0.066  0.000 -0.000 -0.000
       0.000  0.008  0.000  0.000  0.066  0.000  0.000
      -0.000  0.000 -0.000 -0.000  0.000  0.039 -0.000
       0.087  0.000 -0.000 -0.000  0.000 -0.000  0.157
     SPIN  2
     eigenvalues:
       0.029  0.035  0.035  0.039  0.068  0.068  0.213
     eigenvectors (columns):
      -0.825 -0.017 -0.026 -0.003  0.005 -0.004  0.564
      -0.025 -0.258  0.936  0.001 -0.027  0.235 -0.000
       0.029 -0.937 -0.258  0.012  0.233  0.029 -0.000
      -0.002  0.227  0.063 -0.004  0.966  0.111 -0.002
       0.001  0.065 -0.227  0.004 -0.112  0.965  0.002
       0.004 -0.012 -0.003 -1.000 -0.002  0.004 -0.001
       0.564  0.012  0.019  0.001 -0.001  0.001  0.826
     occupation matrix ns (before diag.):
       0.088 -0.000  0.000 -0.000  0.000 -0.000  0.086
      -0.000  0.037 -0.000  0.000  0.008  0.000  0.000
       0.000 -0.000  0.037  0.007  0.000 -0.000 -0.000
      -0.000  0.000  0.007  0.066  0.000 -0.000 -0.000
       0.000  0.008  0.000  0.000  0.066  0.000  0.000
      -0.000  0.000 -0.000 -0.000  0.000  0.039 -0.000
       0.086  0.000 -0.000 -0.000  0.000 -0.000  0.155
     --------------------- ATOM   46 ----------------------
     Tr[ns] (up, down, total) =   0.49090  0.48815  0.97904
     Atomic magnetic moment =   0.00275
     SPIN  1
     eigenvalues:
       0.028  0.035  0.035  0.038  0.067  0.069  0.218
     eigenvectors (columns):
      -0.826  0.026  0.003  0.000 -0.001 -0.002  0.563
      -0.033 -0.914 -0.327 -0.007  0.235  0.010 -0.003
       0.007  0.326 -0.913  0.006  0.008 -0.245 -0.001
       0.001 -0.084  0.230 -0.005  0.037 -0.969  0.001
       0.006  0.222  0.078 -0.003  0.971  0.036 -0.001
      -0.000  0.008 -0.005 -1.000 -0.005  0.003  0.000
       0.563 -0.020 -0.005 -0.000  0.002  0.003  0.826
     occupation matrix ns (before diag.):
       0.089 -0.000 -0.000  0.000 -0.000  0.000  0.088
      -0.000  0.037  0.000 -0.000  0.007 -0.000 -0.000
      -0.000  0.000  0.037  0.008 -0.000 -0.000 -0.000
       0.000 -0.000  0.008  0.067 -0.000 -0.000  0.000
      -0.000  0.007 -0.000 -0.000  0.065 -0.000 -0.000
       0.000 -0.000 -0.000 -0.000 -0.000  0.038  0.000
       0.088 -0.000 -0.000  0.000 -0.000  0.000  0.158
     SPIN  2
     eigenvalues:
       0.028  0.035  0.035  0.038  0.067  0.068  0.216
     eigenvectors (columns):
      -0.827 -0.030 -0.006  0.001 -0.002 -0.000  0.561
      -0.035  0.809  0.538 -0.002  0.235 -0.008 -0.002
       0.016 -0.537  0.809  0.006 -0.008 -0.239  0.003
       0.000  0.132 -0.199 -0.003 -0.033 -0.971  0.005
       0.006 -0.196 -0.130 -0.005  0.972 -0.033 -0.001
      -0.000 -0.005  0.005 -1.000 -0.005  0.002  0.000
       0.561  0.024  0.003 -0.000  0.003  0.007  0.828
     occupation matrix ns (before diag.):
       0.087 -0.000  0.000  0.001 -0.000  0.000  0.087
      -0.000  0.037  0.000 -0.000  0.007 -0.000 -0.000
       0.000  0.000  0.037  0.008 -0.000 -0.000  0.000
       0.001 -0.000  0.008  0.067  0.000 -0.000  0.001
      -0.000  0.007 -0.000  0.000  0.066 -0.000 -0.000
       0.000 -0.000 -0.000 -0.000 -0.000  0.038  0.000
       0.087 -0.000  0.000  0.001 -0.000  0.000  0.157
     --------------------- ATOM   47 ----------------------
     Tr[ns] (up, down, total) =   0.48752  0.48796  0.97548
     Atomic magnetic moment =  -0.00044
     SPIN  1
     eigenvalues:
       0.029  0.035  0.035  0.038  0.067  0.068  0.214
     eigenvectors (columns):
       0.825  0.017 -0.040 -0.000 -0.001 -0.003  0.564
       0.013 -0.958 -0.154 -0.003 -0.232  0.067 -0.000
      -0.053  0.153 -0.957 -0.003 -0.065 -0.231  0.004
       0.007 -0.039  0.237  0.001 -0.266 -0.933  0.002
      -0.003  0.239  0.038  0.004 -0.933  0.266  0.001
       0.000 -0.003 -0.003  1.000  0.003 -0.001 -0.000
      -0.563 -0.013  0.031  0.000  0.002  0.005  0.826
     occupation matrix ns (before diag.):
       0.088 -0.000  0.001  0.000  0.000 -0.000  0.086
      -0.000  0.037  0.000 -0.000  0.008 -0.000  0.000
       0.001  0.000  0.037  0.008 -0.000 -0.000  0.000
       0.000 -0.000  0.008  0.066 -0.000  0.000  0.000
       0.000  0.008 -0.000 -0.000  0.066 -0.000  0.000
      -0.000 -0.000 -0.000  0.000 -0.000  0.038 -0.000
       0.086  0.000  0.000  0.000  0.000 -0.000  0.155
     SPIN  2
     eigenvalues:
       0.029  0.035  0.035  0.038  0.067  0.068  0.214
     eigenvectors (columns):
      -0.824  0.017 -0.038  0.001  0.000 -0.003  0.565
      -0.013 -0.960 -0.140  0.003 -0.233  0.062 -0.000
       0.050  0.138 -0.959  0.004 -0.059 -0.233  0.003
      -0.007 -0.035  0.238 -0.000 -0.244 -0.940  0.002
       0.003  0.239  0.033 -0.004 -0.939  0.243  0.001
      -0.001 -0.003 -0.004 -1.000  0.002 -0.001 -0.000
       0.564 -0.012  0.029 -0.000  0.001  0.005  0.825
     occupation matrix ns (before diag.):
       0.088 -0.000  0.001  0.000  0.000 -0.000  0.086
      -0.000  0.037 -0.000 -0.000  0.008 -0.000  0.000
       0.001 -0.000  0.037  0.008 -0.000 -0.000  0.000
       0.000 -0.000  0.008  0.066 -0.000  0.000  0.000
       0.000  0.008 -0.000 -0.000  0.066 -0.000  0.000
      -0.000 -0.000 -0.000  0.000 -0.000  0.038  0.000
       0.086  0.000  0.000  0.000  0.000  0.000  0.155
     --------------------- ATOM   48 ----------------------
     Tr[ns] (up, down, total) =   0.48482  0.49446  0.97927
     Atomic magnetic moment =  -0.00964
     SPIN  1
     eigenvalues:
       0.027  0.034  0.035  0.039  0.067  0.068  0.215
     eigenvectors (columns):
       0.820 -0.055 -0.100  0.000 -0.012 -0.002  0.561
       0.107 -0.234  0.938 -0.003  0.110  0.202 -0.009
      -0.095 -0.944 -0.224 -0.001 -0.195  0.104  0.003
       0.012  0.215  0.053  0.007 -0.858  0.463 -0.004
      -0.009  0.053 -0.224 -0.003  0.462  0.856 -0.010
      -0.000 -0.003  0.002  1.000  0.008  0.000 -0.000
      -0.554  0.040  0.077 -0.000  0.011  0.015  0.828
     occupation matrix ns (before diag.):
       0.086 -0.002  0.001 -0.000 -0.001 -0.000  0.087
      -0.002  0.036  0.000  0.000  0.008  0.000 -0.001
       0.001  0.000  0.036  0.007  0.000 -0.000  0.000
      -0.000  0.000  0.007  0.066  0.001 -0.000 -0.001
      -0.001  0.008  0.000  0.001  0.066  0.000 -0.001
      -0.000  0.000 -0.000 -0.000  0.000  0.039 -0.000
       0.087 -0.001  0.000 -0.001 -0.001 -0.000  0.156
     SPIN  2
     eigenvalues:
       0.027  0.035  0.035  0.039  0.068  0.069  0.222
     eigenvectors (columns):
      -0.819 -0.113  0.051 -0.001 -0.014 -0.002  0.561
      -0.108  0.322 -0.911  0.007  0.118  0.203 -0.007
       0.110 -0.908 -0.333  0.001 -0.195  0.120  0.004
      -0.014  0.215  0.079 -0.007 -0.840  0.493 -0.004
       0.008 -0.076  0.222  0.003  0.493  0.838 -0.007
       0.000 -0.001 -0.007 -1.000  0.009  0.001  0.000
       0.553  0.084 -0.038  0.001  0.012  0.012  0.828
     occupation matrix ns (before diag.):
       0.089 -0.001  0.001 -0.000 -0.001  0.000  0.090
      -0.001  0.037  0.000  0.000  0.008  0.000 -0.000
       0.001  0.000  0.036  0.007  0.000 -0.000  0.000
      -0.000  0.000  0.007  0.066  0.001 -0.000 -0.001
      -0.001  0.008  0.000  0.001  0.067  0.000 -0.001
       0.000  0.000 -0.000 -0.000  0.000  0.039  0.000
       0.090 -0.000  0.000 -0.001 -0.001  0.000  0.161
     --------------------- ATOM   49 ----------------------
     Tr[ns] (up, down, total) =   0.48961  0.48771  0.97732
     Atomic magnetic moment =   0.00190
     SPIN  1
     eigenvalues:
       0.029  0.035  0.035  0.038  0.067  0.068  0.217
     eigenvectors (columns):
       0.822  0.031  0.062  0.002  0.005  0.006  0.565
       0.083 -0.467 -0.846  0.000 -0.142 -0.198 -0.000
      -0.003 -0.852  0.465 -0.009 -0.184  0.153  0.000
       0.002  0.205 -0.124 -0.004 -0.767  0.595 -0.001
      -0.016  0.110  0.217 -0.003 -0.598 -0.764  0.008
      -0.002 -0.006  0.004  1.000 -0.007  0.001 -0.000
      -0.563 -0.022 -0.045 -0.001  0.001  0.003  0.825
     occupation matrix ns (before diag.):
       0.089 -0.001  0.000 -0.000  0.001 -0.000  0.087
      -0.001  0.037 -0.000 -0.000  0.008  0.000  0.000
       0.000 -0.000  0.037  0.007 -0.000  0.000  0.000
      -0.000 -0.000  0.007  0.066 -0.001  0.000 -0.000
       0.001  0.008 -0.000 -0.001  0.066  0.000  0.001
      -0.000  0.000  0.000  0.000  0.000  0.038 -0.000
       0.087  0.000  0.000 -0.000  0.001 -0.000  0.157
     SPIN  2
     eigenvalues:
       0.029  0.035  0.035  0.038  0.067  0.068  0.215
     eigenvectors (columns):
      -0.823  0.034 -0.055 -0.001 -0.005  0.008  0.564
      -0.077 -0.503  0.827 -0.000  0.143 -0.192  0.002
      -0.001 -0.831 -0.502  0.008  0.184  0.152 -0.001
      -0.002  0.200  0.129  0.005  0.763  0.600 -0.004
       0.014  0.119 -0.207  0.003  0.602 -0.761  0.009
       0.002 -0.005 -0.004 -1.000  0.007  0.002 -0.000
       0.562 -0.024  0.038  0.001  0.000  0.007  0.826
     occupation matrix ns (before diag.):
       0.088 -0.000 -0.000 -0.000  0.001 -0.000  0.087
      -0.000  0.037 -0.000 -0.000  0.008  0.000  0.001
      -0.000 -0.000  0.037  0.007 -0.000  0.000 -0.000
      -0.000 -0.000  0.007  0.066 -0.001  0.000 -0.000
       0.001  0.008 -0.000 -0.001  0.066  0.000  0.001
      -0.000  0.000  0.000  0.000  0.000  0.038 -0.000
       0.087  0.001 -0.000 -0.000  0.001 -0.000  0.156
     --------------------- ATOM   50 ----------------------
     Tr[ns] (up, down, total) =   0.48765  0.48683  0.97448
     Atomic magnetic moment =   0.00081
     SPIN  1
     eigenvalues:
       0.029  0.035  0.035  0.039  0.068  0.068  0.214
     eigenvectors (columns):
      -0.828  0.004  0.008 -0.001 -0.001  0.001  0.561
      -0.007 -0.948 -0.215  0.003 -0.131 -0.193 -0.000
       0.008 -0.215  0.948  0.001 -0.191  0.132 -0.000
      -0.001  0.050 -0.227  0.002 -0.801  0.552 -0.001
       0.002  0.227  0.052 -0.001 -0.552 -0.800  0.001
       0.001 -0.004 -0.001 -1.000 -0.001  0.001 -0.000
       0.561 -0.003 -0.006  0.000 -0.000  0.001  0.828
     occupation matrix ns (before diag.):
       0.087 -0.000  0.000 -0.000  0.000 -0.000  0.086
      -0.000  0.037 -0.000 -0.000  0.007 -0.000  0.000
       0.000 -0.000  0.037  0.007 -0.000  0.000 -0.000
      -0.000 -0.000  0.007  0.066 -0.000  0.000 -0.000
       0.000  0.007 -0.000 -0.000  0.066 -0.000  0.000
      -0.000 -0.000  0.000  0.000 -0.000  0.039 -0.000
       0.086  0.000 -0.000 -0.000  0.000 -0.000  0.156
     SPIN  2
     eigenvalues:
       0.029  0.035  0.035  0.039  0.068  0.068  0.214
     eigenvectors (columns):
      -0.827 -0.006 -0.007 -0.001  0.001 -0.001  0.562
      -0.007  0.970 -0.063  0.002  0.127  0.196 -0.000
       0.009 -0.063 -0.971 -0.001  0.194 -0.128 -0.000
      -0.001  0.017  0.232  0.002  0.814 -0.533 -0.001
       0.001 -0.233  0.015 -0.001  0.533  0.813 -0.000
       0.001  0.002  0.001 -1.000  0.001 -0.002 -0.000
       0.562  0.005  0.005  0.001  0.001  0.000  0.827
     occupation matrix ns (before diag.):
       0.087 -0.000  0.000 -0.000 -0.000 -0.000  0.086
      -0.000  0.037 -0.000 -0.000  0.007 -0.000 -0.000
       0.000 -0.000  0.037  0.007 -0.000  0.000 -0.000
      -0.000 -0.000  0.007  0.066 -0.000  0.000 -0.000
      -0.000  0.007 -0.000 -0.000  0.066 -0.000 -0.000
      -0.000 -0.000  0.000  0.000 -0.000  0.039 -0.000
       0.086 -0.000 -0.000 -0.000 -0.000 -0.000  0.155
     --------------------- ATOM   51 ----------------------
     Tr[ns] (up, down, total) =   0.48593  0.48834  0.97427
     Atomic magnetic moment =  -0.00241
     SPIN  1
     eigenvalues:
       0.028  0.035  0.035  0.039  0.068  0.068  0.213
     eigenvectors (columns):
       0.824  0.003 -0.045  0.001 -0.004 -0.002  0.565
       0.013 -0.956  0.185 -0.001 -0.138  0.182 -0.001
       0.055  0.186  0.953 -0.001  0.183  0.142 -0.004
      -0.005 -0.042 -0.228  0.004  0.771  0.593 -0.005
      -0.003  0.224 -0.045 -0.002 -0.594  0.771 -0.002
      -0.001  0.000  0.002  1.000 -0.004 -0.000 -0.000
      -0.564 -0.001  0.034 -0.000  0.006  0.007  0.825
     occupation matrix ns (before diag.):
       0.087 -0.000 -0.001 -0.001 -0.000 -0.000  0.086
      -0.000  0.037  0.000  0.000  0.007  0.000 -0.000
      -0.001  0.000  0.037  0.007  0.000 -0.000 -0.000
      -0.001  0.000  0.007  0.066  0.000 -0.000 -0.000
      -0.000  0.007  0.000  0.000  0.066  0.000 -0.000
      -0.000  0.000 -0.000 -0.000  0.000  0.039 -0.000
       0.086 -0.000 -0.000 -0.000 -0.000 -0.000  0.154
     SPIN  2
     eigenvalues:
       0.028  0.035  0.035  0.039  0.068  0.069  0.215
     eigenvectors (columns):
       0.825  0.001 -0.043  0.001 -0.004 -0.002  0.563
       0.011 -0.962  0.151 -0.002 -0.146  0.177 -0.004
       0.053  0.152  0.959 -0.002  0.177  0.150 -0.003
      -0.005 -0.034 -0.229  0.003  0.746  0.625 -0.003
      -0.002  0.226 -0.037 -0.001 -0.626  0.746 -0.003
      -0.001 -0.002  0.003  1.000 -0.003 -0.001 -0.000
      -0.562 -0.004  0.032  0.000  0.004  0.007  0.826
     occupation matrix ns (before diag.):
       0.088 -0.000 -0.001 -0.000 -0.000 -0.000  0.087
      -0.000  0.037  0.000  0.000  0.007  0.000 -0.000
      -0.001  0.000  0.037  0.007  0.000 -0.000 -0.000
      -0.000  0.000  0.007  0.066  0.000 -0.000 -0.000
      -0.000  0.007  0.000  0.000  0.067  0.000 -0.000
      -0.000  0.000 -0.000 -0.000  0.000  0.039 -0.000
       0.087 -0.000 -0.000 -0.000 -0.000 -0.000  0.155
     --------------------- ATOM   52 ----------------------
     Tr[ns] (up, down, total) =   0.48948  0.48909  0.97856
     Atomic magnetic moment =   0.00039
     SPIN  1
     eigenvalues:
       0.029  0.035  0.035  0.038  0.067  0.068  0.216
     eigenvectors (columns):
       0.826  0.008  0.042  0.000 -0.001  0.011  0.562
      -0.008  0.971 -0.018 -0.004 -0.237 -0.018  0.000
       0.049 -0.018 -0.967 -0.001  0.016 -0.250  0.006
      -0.007  0.003  0.251  0.000  0.067 -0.966  0.011
       0.002 -0.237  0.006  0.006 -0.969 -0.067  0.000
      -0.000  0.005 -0.001  1.000  0.005  0.000 -0.000
      -0.561 -0.005 -0.025 -0.000 -0.000  0.007  0.827
     occupation matrix ns (before diag.):
       0.088  0.000  0.000  0.001  0.000 -0.000  0.087
       0.000  0.037  0.000  0.000  0.007 -0.000  0.000
       0.000  0.000  0.037  0.008  0.000 -0.000  0.001
       0.001  0.000  0.008  0.066  0.000  0.000  0.001
       0.000  0.007  0.000  0.000  0.065 -0.000  0.000
      -0.000 -0.000 -0.000  0.000 -0.000  0.038 -0.000
       0.087  0.000  0.001  0.001  0.000 -0.000  0.157
     SPIN  2
     eigenvalues:
       0.029  0.035  0.035  0.038  0.067  0.068  0.216
     eigenvectors (columns):
       0.825  0.003  0.045  0.001  0.001  0.009  0.563
      -0.005  0.971  0.036  0.001  0.237 -0.009 -0.001
       0.052  0.035 -0.965 -0.000 -0.009 -0.253  0.004
      -0.009 -0.009  0.253  0.001 -0.038 -0.967  0.009
       0.001 -0.237 -0.008  0.006  0.971 -0.038 -0.002
      -0.001 -0.000 -0.000  1.000 -0.006  0.001 -0.000
      -0.563 -0.002 -0.029 -0.000  0.002  0.005  0.826
     occupation matrix ns (before diag.):
       0.088 -0.000  0.000  0.001 -0.000 -0.000  0.087
      -0.000  0.037  0.000  0.000  0.007 -0.000 -0.000
       0.000  0.000  0.037  0.008  0.000 -0.000  0.001
       0.001  0.000  0.008  0.066  0.000 -0.000  0.001
      -0.000  0.007  0.000  0.000  0.065 -0.000 -0.000
      -0.000 -0.000 -0.000 -0.000 -0.000  0.038 -0.000
       0.087 -0.000  0.001  0.001 -0.000 -0.000  0.157
[...]
     1.0000   1.0000   1.0000   1.0000   1.0000   1.0000   1.0000   1.0000
     1.0000   1.0000   1.0000   1.0000   1.0000   1.0000   1.0000   1.0000
     1.0000   1.0000   1.0000   1.0000   1.0000   1.0000   1.0000   1.0000
     1.0000   1.0000   1.0000   1.0000   1.0000   1.0000   1.0000   1.0000
     1.0000   1.0000   1.0000   1.0000   1.0000   1.0000   1.0000   1.0000
     1.0000   1.0000   1.0000   1.0000   1.0000   1.0000   1.0000   1.0000
     1.0000   1.0000   1.0000   1.0000   1.0000   1.0000   1.0000   1.0000
     1.0000   1.0000   1.0000   1.0000   1.0000   1.0000   1.0000   1.0000
     1.0000   1.0000   1.0000   1.0000   1.0000   1.0000   1.0000   1.0000
     1.0000   1.0000   1.0000   1.0000   1.0000   1.0000   1.0000   1.0000
     1.0000   1.0000   1.0000   1.0000   1.0000   1.0000   1.0000   1.0000
     1.0000   1.0000   1.0000   1.0000   1.0000   1.0000   1.0000   1.0000
     1.0000   1.0000   1.0000   1.0000   1.0000   1.0000   1.0000   1.0000
     1.0000   1.0000   1.0000   1.0000   1.0000   1.0000   1.0000   1.0000
     1.0000   1.0000   1.0000   1.0000   1.0000   1.0000   1.0000   1.0000
     1.0000   1.0000   1.0000   1.0000   1.0000   1.0000   1.0000   1.0000
     1.0000   1.0000   1.0000   1.0000   1.0000   1.0000   1.0000   1.0000
     1.0000   1.0000   1.0000   1.0000   1.0000   1.0000   1.0000   1.0000
     1.0000   1.0000   1.0000   1.0000   1.0000   1.0000   1.0000   1.0000
     1.0000   1.0000   1.0000   1.0000   1.0000   1.0000   1.0000   1.0000
     1.0000   1.0000   1.0000   1.0000   1.0000   1.0000   1.0000   1.0000
     1.0000   1.0000   1.0000   1.0000   1.0000   1.0000   1.0000   1.0000
     1.0000   1.0000   1.0000   1.0000   1.0000   1.0000   1.0000   1.0000
     1.0000   1.0000   1.0000   1.0000   1.0000   1.0000   1.0000   1.0000
     1.0000   1.0000   1.0000   1.0000   1.0000   1.0000   1.0000   1.0000
     1.0000   1.0000   1.0000   1.0000   1.0000   1.0000   1.0000   1.0000
     1.0000   1.0000   1.0000   1.0000   1.0000   1.0000   1.0000   1.0000
     1.0000   1.0000   1.0000   1.0000   1.0000   1.0000   1.0000   1.0000
     1.0000   1.0000   1.0000   1.0000   1.0000   1.0000   1.0000   1.0000
     1.0000   1.0000   1.0000   1.0000   1.0000   1.0000   1.0000   1.0000
     1.0000   1.0000   1.0000   1.0000   1.0000   1.0000   1.0000   1.0000
     1.0000   1.0000   1.0000   1.0000   1.0000   1.0000   1.0000   1.0000
     1.0000   1.0000   1.0000   1.0000   1.0000   1.0000   1.0000   1.0000
     1.0000   1.0000   1.0000   1.0000   1.0000   1.0000   1.0000   1.0000
     1.0000   1.0000   1.0000   1.0000   1.0000   1.0000   1.0000   1.0000
     1.0000   1.0000   1.0000   1.0000   1.0000   1.0000   1.0000   1.0000
     1.0000   1.0000   1.0000   1.0000   1.0000   1.0000   1.0000   1.0000
     1.0000   1.0000   1.0000   1.0000   1.0000   1.0000   1.0000   1.0000
     1.0000   1.0000   1.0000   1.0000   1.0000   1.0000   1.0000   1.0000
     1.0000   1.0000   1.0000   1.0000   1.0000   1.0000   1.0000   1.0000
     1.0000   1.0000   1.0000   1.0000   1.0000   1.0000   1.0000   1.0000
     1.0000   1.0000   1.0000   1.0000   1.0000   1.0000   1.0000   1.0000
     1.0000   1.0000   1.0000   1.0000   1.0000   1.0000   1.0000   1.0000
     1.0000   1.0000   1.0000   1.0000   1.0000   1.0000   1.0000   1.0000
     1.0000   1.0000   1.0000   1.0000   1.0000   1.0000   1.0000   1.0000
     1.0000   1.0000   1.0000   1.0000   1.0000   1.0000   1.0000   1.0000
     1.0000   1.0000   1.0000   1.0000   1.0000   1.0000   1.0000   1.0000
     1.0000   1.0000   1.0000   1.0000   1.0000   1.0000   1.0000   1.0000
     1.0000   1.0000   1.0000   1.0000   1.0000   1.0000   1.0000   1.0000
     1.0000   1.0000   1.0000   1.0000   1.0000   1.0000   1.0000   1.0000
     1.0000   1.0000   1.0000   1.0000   1.0000   1.0000   1.0000   1.0000
     1.0000   1.0000   1.0000   1.0000   1.0000   1.0000   1.0000   1.0000
     1.0000   1.0000   1.0000   1.0000   1.0000   1.0000   1.0000   1.0000
     1.0000   1.0000   1.0000   1.0000   1.0000   1.0000   1.0000   1.0000
     1.0000   1.0000   1.0000   1.0000   1.0000   1.0000   1.0000   1.0000
     1.0000   1.0000   1.0000   1.0000   1.0000   1.0000   1.0000   1.0000
     1.0000   1.0000   1.0000   1.0000   1.0000   1.0000   1.0000   1.0000
     1.0000   1.0000   1.0000   1.0000   1.0000   1.0000   1.0000   1.0000
     1.0000   1.0000   1.0000   1.0000   1.0000   1.0000   1.0000   1.0000
     1.0000   1.0000   1.0000   1.0000   1.0000   1.0000   1.0000   1.0000
     1.0000   1.0000   1.0000   1.0000   1.0000   1.0000   1.0000   1.0000
     1.0000   1.0000   1.0000   1.0000   1.0000   1.0000   1.0000   1.0000
     1.0000   1.0000   1.0000   1.0000   1.0000   1.0000   1.0000   1.0000
     1.0000   1.0000   1.0000   1.0000   1.0000   1.0000   1.0000   1.0000
     1.0000   1.0000   1.0000   1.0000   1.0000   1.0000   1.0000   1.0000
     1.0000   1.0000   1.0000   1.0000   1.0000   1.0000   1.0000   1.0000
     1.0000   1.0000   1.0000   1.0000   1.0000   1.0000   1.0000   1.0000
     1.0000   1.0000   1.0000   1.0000   1.0000   1.0000   1.0000   1.0000
     1.0000   1.0000   1.0000   1.0000   1.0000   1.0000   1.0000   1.0000
     1.0000   1.0000   1.0000   1.0000   1.0000   1.0000   1.0000   1.0000
     1.0000   1.0000   1.0000   1.0000   1.0000   1.0000   1.0000   1.0000
     1.0000   1.0000   1.0000   1.0000   1.0000   1.0000   1.0000   1.0000
     1.0000   1.0000   1.0000   1.0000   1.0000   1.0000   1.0000   1.0000
     1.0000   1.0000   1.0000   1.0000   1.0000   1.0000   1.0000   1.0000
     1.0000   1.0000   1.0000   1.0000   1.0000   1.0000   1.0000   1.0000
     1.0000   1.0000   1.0000   1.0000   1.0000   1.0000   1.0000   1.0000
     1.0000   1.0000   1.0000   1.0000   1.0000   1.0000   1.0000   1.0000
     1.0000   1.0000   1.0000   1.0000   1.0000   1.0000   1.0000   1.0000
     1.0000   1.0000   1.0000   1.0000   1.0000   1.0000   1.0000   1.0000
     1.0000   1.0000   1.0000   1.0000   1.0000   1.0000   1.0000   1.0000
     1.0000   1.0000   1.0000   1.0000   1.0000   1.0000   1.0000   1.0000
     1.0000   1.0000   1.0000   1.0000   1.0000   1.0000   1.0000   1.0000
     1.0000   1.0000   1.0000   1.0000   1.0000   1.0000   1.0000   1.0000
     1.0000   1.0000   1.0000   1.0000   1.0000   1.0000   1.0000   1.0000
     1.0000   1.0000   1.0000   1.0000   1.0000   1.0000   1.0000   1.0001
     1.0001   1.0001   1.0002   1.0002   1.0004   1.0006   1.0008   1.0009
     1.0012   1.0015   1.0019   1.0034   1.0054   1.0082   1.0086   1.0162
     1.0286   1.0233   0.9942   0.8444   0.7662   0.5027   0.4513   0.3791
     0.3338   0.2705   0.2392   0.1833   0.1605   0.1450   0.1116   0.0895
     0.0808   0.0519   0.0431   0.0258   0.0227   0.0204   0.0165   0.0070
     0.0041   0.0018  -0.0027  -0.0077  -0.0101  -0.0141  -0.0169  -0.0194
    -0.0200  -0.0219  -0.0273  -0.0293  -0.0300  -0.0309  -0.0330  -0.0332
    -0.0334  -0.0338  -0.0342  -0.0347  -0.0350  -0.0352  -0.0354  -0.0355
    -0.0354  -0.0353  -0.0351  -0.0349  -0.0346  -0.0343  -0.0342  -0.0339
    -0.0333  -0.0330  -0.0329  -0.0324  -0.0321  -0.0317  -0.0317  -0.0314
    -0.0304  -0.0298  -0.0291  -0.0286  -0.0283  -0.0273  -0.0269  -0.0256
    -0.0252  -0.0248  -0.0242  -0.0233  -0.0226  -0.0213  -0.0204  -0.0196
    -0.0193  -0.0181  -0.0180  -0.0167  -0.0163  -0.0156  -0.0147  -0.0144
    -0.0139  -0.0138  -0.0133  -0.0131  -0.0127  -0.0115  -0.0106  -0.0100
    -0.0095  -0.0094  -0.0091  -0.0090  -0.0083  -0.0080  -0.0075  -0.0071
    -0.0070  -0.0069  -0.0059  -0.0057  -0.0056  -0.0053  -0.0051  -0.0046
    -0.0046  -0.0043  -0.0042  -0.0040  -0.0038  -0.0036  -0.0035  -0.0034
    -0.0031  -0.0030  -0.0029  -0.0028  -0.0027  -0.0025  -0.0023  -0.0023
    -0.0022  -0.0021  -0.0020  -0.0020  -0.0018  -0.0018  -0.0017  -0.0016
    -0.0015  -0.0014  -0.0013  -0.0013  -0.0011  -0.0011  -0.0010  -0.0010
    -0.0010  -0.0009  -0.0009  -0.0008  -0.0008  -0.0007  -0.0007  -0.0007
    -0.0006  -0.0006  -0.0006  -0.0005  -0.0005  -0.0005  -0.0005  -0.0005
    -0.0004  -0.0004  -0.0004  -0.0004  -0.0004  -0.0004  -0.0004  -0.0003
    -0.0003  -0.0003  -0.0003  -0.0003  -0.0003  -0.0003  -0.0003  -0.0003
    -0.0003  -0.0002  -0.0002  -0.0002  -0.0002  -0.0002  -0.0002  -0.0002
    -0.0002  -0.0002  -0.0002  -0.0001  -0.0001  -0.0001  -0.0001  -0.0001
    -0.0001  -0.0001  -0.0001  -0.0001  -0.0001  -0.0001  -0.0001  -0.0001
    -0.0001  -0.0001  -0.0001  -0.0001  -0.0001  -0.0000  -0.0000  -0.0000
    -0.0000  -0.0000  -0.0000  -0.0000  -0.0000  -0.0000  -0.0000  -0.0000
    -0.0000  -0.0000  -0.0000  -0.0000  -0.0000  -0.0000  -0.0000  -0.0000
    -0.0000  -0.0000  -0.0000  -0.0000  -0.0000  -0.0000  -0.0000  -0.0000
    -0.0000  -0.0000  -0.0000  -0.0000  -0.0000  -0.0000  -0.0000  -0.0000
    -0.0000  -0.0000  -0.0000  -0.0000  -0.0000  -0.0000  -0.0000  -0.0000
    -0.0000  -0.0000  -0.0000  -0.0000  -0.0000  -0.0000  -0.0000  -0.0000
    -0.0000  -0.0000  -0.0000  -0.0000  -0.0000  -0.0000  -0.0000  -0.0000
    -0.0000  -0.0000  -0.0000  -0.0000  -0.0000  -0.0000  -0.0000  -0.0000
    -0.0000  -0.0000  -0.0000  -0.0000  -0.0000  -0.0000  -0.0000  -0.0000
    -0.0000  -0.0000  -0.0000  -0.0000  -0.0000  -0.0000  -0.0000  -0.0000
    -0.0000  -0.0000  -0.0000  -0.0000  -0.0000  -0.0000  -0.0000  -0.0000
    -0.0000  -0.0000  -0.0000  -0.0000  -0.0000  -0.0000  -0.0000  -0.0000
    -0.0000  -0.0000  -0.0000  -0.0000  -0.0000  -0.0000  -0.0000  -0.0000
    -0.0000  -0.0000  -0.0000  -0.0000  -0.0000  -0.0000  -0.0000  -0.0000
    -0.0000  -0.0000  -0.0000  -0.0000  -0.0000  -0.0000  -0.0000  -0.0000
    -0.0000  -0.0000  -0.0000  -0.0000  -0.0000  -0.0000  -0.0000  -0.0000
    -0.0000  -0.0000  -0.0000  -0.0000  -0.0000  -0.0000  -0.0000  -0.0000
    -0.0000  -0.0000  -0.0000  -0.0000  -0.0000  -0.0000  -0.0000  -0.0000
    -0.0000  -0.0000  -0.0000  -0.0000  -0.0000  -0.0000  -0.0000  -0.0000
    -0.0000  -0.0000  -0.0000  -0.0000  -0.0000  -0.0000  -0.0000  -0.0000
    -0.0000  -0.0000  -0.0000  -0.0000  -0.0000  -0.0000  -0.0000  -0.0000
    -0.0000  -0.0000  -0.0000  -0.0000  -0.0000  -0.0000  -0.0000  -0.0000
    -0.0000  -0.0000  -0.0000  -0.0000  -0.0000  -0.0000  -0.0000  -0.0000
    -0.0000  -0.0000  -0.0000  -0.0000  -0.0000  -0.0000  -0.0000  -0.0000
    -0.0000  -0.0000  -0.0000  -0.0000  -0.0000  -0.0000  -0.0000  -0.0000
    -0.0000  -0.0000  -0.0000  -0.0000  -0.0000  -0.0000  -0.0000  -0.0000
    -0.0000  -0.0000  -0.0000  -0.0000  -0.0000  -0.0000  -0.0000  -0.0000
    -0.0000  -0.0000  -0.0000  -0.0000  -0.0000  -0.0000  -0.0000  -0.0000
    -0.0000  -0.0000  -0.0000  -0.0000  -0.0000  -0.0000  -0.0000  -0.0000
    -0.0000  -0.0000  -0.0000  -0.0000  -0.0000  -0.0000  -0.0000  -0.0000
    -0.0000  -0.0000  -0.0000  -0.0000  -0.0000  -0.0000  -0.0000  -0.0000
    -0.0000  -0.0000  -0.0000  -0.0000  -0.0000  -0.0000  -0.0000  -0.0000
    -0.0000  -0.0000  -0.0000  -0.0000  -0.0000  -0.0000  -0.0000  -0.0000
    -0.0000  -0.0000  -0.0000  -0.0000  -0.0000  -0.0000  -0.0000  -0.0000
    -0.0000  -0.0000  -0.0000  -0.0000  -0.0000  -0.0000  -0.0000  -0.0000
    -0.0000  -0.0000  -0.0000  -0.0000  -0.0000  -0.0000  -0.0000  -0.0000
    -0.0000  -0.0000  -0.0000  -0.0000  -0.0000  -0.0000  -0.0000  -0.0000
    -0.0000  -0.0000  -0.0000  -0.0000  -0.0000  -0.0000  -0.0000  -0.0000
    -0.0000  -0.0000  -0.0000  -0.0000  -0.0000  -0.0000  -0.0000  -0.0000
    -0.0000  -0.0000  -0.0000  -0.0000  -0.0000  -0.0000  -0.0000  -0.0000
    -0.0000  -0.0000  -0.0000  -0.0000  -0.0000  -0.0000  -0.0000  -0.0000
    -0.0000  -0.0000  -0.0000  -0.0000  -0.0000  -0.0000  -0.0000  -0.0000
    -0.0000  -0.0000  -0.0000  -0.0000  -0.0000  -0.0000  -0.0000  -0.0000
    -0.0000  -0.0000  -0.0000  -0.0000  -0.0000  -0.0000  -0.0000  -0.0000
    -0.0000  -0.0000  -0.0000  -0.0000  -0.0000  -0.0000  -0.0000  -0.0000
    -0.0000  -0.0000  -0.0000  -0.0000  -0.0000  -0.0000  -0.0000  -0.0000
    -0.0000  -0.0000  -0.0000  -0.0000  -0.0000  -0.0000  -0.0000  -0.0000
    -0.0000  -0.0000  -0.0000  -0.0000  -0.0000  -0.0000  -0.0000  -0.0000
    -0.0000  -0.0000  -0.0000  -0.0000  -0.0000  -0.0000  -0.0000  -0.0000
    -0.0000  -0.0000  -0.0000  -0.0000  -0.0000  -0.0000  -0.0000  -0.0000
    -0.0000  -0.0000  -0.0000  -0.0000  -0.0000  -0.0000  -0.0000  -0.0000
    -0.0000  -0.0000  -0.0000  -0.0000  -0.0000  -0.0000  -0.0000  -0.0000
    -0.0000  -0.0000  -0.0000  -0.0000  -0.0000  -0.0000  -0.0000  -0.0000
    -0.0000  -0.0000  -0.0000  -0.0000  -0.0000  -0.0000  -0.0000  -0.0000
    -0.0000  -0.0000  -0.0000  -0.0000  -0.0000  -0.0000  -0.0000  -0.0000
    -0.0000  -0.0000  -0.0000  -0.0000  -0.0000  -0.0000  -0.0000  -0.0000
    -0.0000  -0.0000  -0.0000  -0.0000  -0.0000  -0.0000  -0.0000  -0.0000
    -0.0000  -0.0000  -0.0000  -0.0000  -0.0000  -0.0000  -0.0000  -0.0000
    -0.0000  -0.0000  -0.0000  -0.0000  -0.0000  -0.0000  -0.0000  -0.0000
    -0.0000  -0.0000  -0.0000  -0.0000  -0.0000  -0.0000  -0.0000  -0.0000
    -0.0000  -0.0000  -0.0000  -0.0000  -0.0000  -0.0000  -0.0000  -0.0000
    -0.0000  -0.0000  -0.0000  -0.0000  -0.0000  -0.0000  -0.0000  -0.0000
    -0.0000  -0.0000  -0.0000  -0.0000  -0.0000  -0.0000  -0.0000  -0.0000
    -0.0000  -0.0000  -0.0000  -0.0000  -0.0000  -0.0000  -0.0000  -0.0000
    -0.0000  -0.0000  -0.0000  -0.0000  -0.0000  -0.0000  -0.0000  -0.0000
    -0.0000  -0.0000  -0.0000  -0.0000  -0.0000  -0.0000  -0.0000  -0.0000
    -0.0000  -0.0000  -0.0000  -0.0000  -0.0000  -0.0000  -0.0000  -0.0000
    -0.0000  -0.0000  -0.0000  -0.0000  -0.0000  -0.0000  -0.0000  -0.0000
    -0.0000  -0.0000  -0.0000  -0.0000  -0.0000  -0.0000  -0.0000  -0.0000
    -0.0000  -0.0000  -0.0000  -0.0000  -0.0000  -0.0000  -0.0000  -0.0000
    -0.0000  -0.0000  -0.0000  -0.0000  -0.0000  -0.0000  -0.0000  -0.0000
    -0.0000  -0.0000  -0.0000  -0.0000  -0.0000  -0.0000  -0.0000  -0.0000
    -0.0000  -0.0000  -0.0000  -0.0000  -0.0000  -0.0000  -0.0000  -0.0000
    -0.0000  -0.0000  -0.0000  -0.0000  -0.0000  -0.0000  -0.0000  -0.0000
    -0.0000  -0.0000  -0.0000  -0.0000  -0.0000  -0.0000  -0.0000  -0.0000
    -0.0000  -0.0000  -0.0000  -0.0000  -0.0000  -0.0000  -0.0000  -0.0000
    -0.0000  -0.0000  -0.0000  -0.0000  -0.0000  -0.0000  -0.0000  -0.0000
    -0.0000  -0.0000  -0.0000  -0.0000  -0.0000  -0.0000  -0.0000  -0.0000
    -0.0000  -0.0000  -0.0000  -0.0000  -0.0000  -0.0000  -0.0000  -0.0000
    -0.0000  -0.0000  -0.0000  -0.0000  -0.0000  -0.0000  -0.0000  -0.0000
    -0.0000  -0.0000  -0.0000  -0.0000  -0.0000  -0.0000  -0.0000  -0.0000
    -0.0000  -0.0000  -0.0000  -0.0000  -0.0000  -0.0000  -0.0000  -0.0000
    -0.0000  -0.0000  -0.0000  -0.0000  -0.0000  -0.0000  -0.0000  -0.0000
    -0.0000  -0.0000  -0.0000  -0.0000  -0.0000  -0.0000  -0.0000  -0.0000
    -0.0000  -0.0000  -0.0000  -0.0000  -0.0000  -0.0000  -0.0000  -0.0000
    -0.0000  -0.0000  -0.0000  -0.0000  -0.0000  -0.0000  -0.0000  -0.0000
    -0.0000  -0.0000  -0.0000  -0.0000  -0.0000  -0.0000  -0.0000  -0.0000
    -0.0000  -0.0000  -0.0000  -0.0000  -0.0000  -0.0000  -0.0000  -0.0000
    -0.0000  -0.0000  -0.0000  -0.0000  -0.0000  -0.0000  -0.0000  -0.0000
    -0.0000  -0.0000  -0.0000  -0.0000  -0.0000  -0.0000  -0.0000  -0.0000
    -0.0000  -0.0000  -0.0000  -0.0000  -0.0000  -0.0000  -0.0000  -0.0000
    -0.0000  -0.0000  -0.0000  -0.0000  -0.0000  -0.0000  -0.0000  -0.0000
    -0.0000  -0.0000  -0.0000  -0.0000  -0.0000  -0.0000  -0.0000  -0.0000
    -0.0000  -0.0000  -0.0000  -0.0000  -0.0000  -0.0000  -0.0000  -0.0000
    -0.0000  -0.0000  -0.0000  -0.0000  -0.0000  -0.0000  -0.0000  -0.0000
    -0.0000  -0.0000  -0.0000  -0.0000  -0.0000  -0.0000  -0.0000  -0.0000
    -0.0000  -0.0000  -0.0000  -0.0000  -0.0000  -0.0000  -0.0000  -0.0000
    -0.0000  -0.0000  -0.0000  -0.0000  -0.0000  -0.0000  -0.0000  -0.0000
    -0.0000  -0.0000  -0.0000  -0.0000  -0.0000  -0.0000  -0.0000  -0.0000
    -0.0000  -0.0000  -0.0000  -0.0000  -0.0000  -0.0000  -0.0000  -0.0000
    -0.0000  -0.0000  -0.0000  -0.0000  -0.0000  -0.0000  -0.0000  -0.0000
    -0.0000  -0.0000  -0.0000  -0.0000  -0.0000  -0.0000  -0.0000  -0.0000
    -0.0000  -0.0000  -0.0000  -0.0000  -0.0000  -0.0000  -0.0000  -0.0000
    -0.0000  -0.0000  -0.0000  -0.0000  -0.0000  -0.0000  -0.0000  -0.0000
    -0.0000  -0.0000  -0.0000  -0.0000  -0.0000  -0.0000  -0.0000  -0.0000
    -0.0000  -0.0000  -0.0000  -0.0000  -0.0000  -0.0000  -0.0000  -0.0000
    -0.0000  -0.0000  -0.0000  -0.0000  -0.0000  -0.0000  -0.0000  -0.0000
    -0.0000  -0.0000  -0.0000  -0.0000  -0.0000  -0.0000  -0.0000  -0.0000
    -0.0000  -0.0000  -0.0000  -0.0000  -0.0000  -0.0000  -0.0000  -0.0000
    -0.0000  -0.0000  -0.0000  -0.0000  -0.0000  -0.0000  -0.0000  -0.0000

     the Fermi energy is    -1.9623 ev
     (compare with:    -1.7677 eV, computed in scf)

     Writing all to output data dir ./out/aiida.save/
 
     init_run     :     32.73s CPU     21.39s WALL (       1 calls)
     electrons    :   5057.72s CPU   2595.63s WALL (       1 calls)

     Called by init_run:
     wfcinit      :     19.05s CPU     10.29s WALL (       1 calls)
     wfcinit:atom :      0.26s CPU      0.18s WALL (       2 calls)
     wfcinit:wfcr :    103.16s CPU     53.39s WALL (       2 calls)
     potinit      :      3.84s CPU      3.51s WALL (       1 calls)
     hinit0       :      4.07s CPU      2.89s WALL (       1 calls)

     Called by electrons:
     c_bands      :   5057.69s CPU   2595.60s WALL (       1 calls)
     v_of_rho     :      0.86s CPU      0.48s WALL (       1 calls)
     v_h          :      0.06s CPU      0.03s WALL (       1 calls)
     v_xc         :      0.79s CPU      0.45s WALL (       1 calls)
     newd         :      2.64s CPU      1.71s WALL (       1 calls)
     PAW_pot      :      2.41s CPU      2.10s WALL (       1 calls)

     Called by c_bands:
     init_us_2    :      0.41s CPU      0.27s WALL (       4 calls)
     init_us_2:cp :      0.41s CPU      0.27s WALL (       4 calls)
     regterg      :   4951.13s CPU   2539.85s WALL (      12 calls)

     Called by sum_band:

     Called by *egterg:
     rdiaghg      :    376.42s CPU    195.71s WALL (     242 calls)
     regterg:over :    598.40s CPU    303.04s WALL (     240 calls)
     regterg:upda :    338.70s CPU    170.77s WALL (     240 calls)
     regterg:last :    988.05s CPU    497.01s WALL (      92 calls)
     rdiaghg:chol :     27.36s CPU     14.24s WALL (     242 calls)
     rdiaghg:inve :     22.63s CPU     11.96s WALL (     242 calls)
     rdiaghg:para :     61.12s CPU     31.69s WALL (     484 calls)
     h_psi        :   2391.83s CPU   1241.01s WALL (     254 calls)
     s_psi        :    300.80s CPU    152.36s WALL (     256 calls)
     g_psi        :      4.70s CPU      2.49s WALL (     240 calls)

     Called by h_psi:
     h_psi:calbec :    333.44s CPU    173.96s WALL (     254 calls)
     vloc_psi     :   1254.88s CPU    660.20s WALL (     254 calls)
     add_vuspsi   :    297.07s CPU    151.97s WALL (     254 calls)
     vhpsi        :    498.21s CPU    250.84s WALL (     254 calls)

     General routines
     calbec       :    405.61s CPU    211.74s WALL (     510 calls)
     fft          :      0.92s CPU      0.51s WALL (      18 calls)
     ffts         :      0.05s CPU      0.02s WALL (       2 calls)
     fftw         :    941.85s CPU    523.56s WALL (  194412 calls)
     interpolate  :      0.16s CPU      0.09s WALL (       2 calls)
     davcio       :      0.29s CPU      0.32s WALL (       8 calls)
 
     Parallel routines

     Hubbard U routines
     vhpsi        :    498.21s CPU    250.84s WALL (     254 calls)

     PAW routines
     PAW_pot      :      2.41s CPU      2.10s WALL (       1 calls)
 
     PWSCF        :      1h25m CPU  44m10.50s WALL

 
   This run was terminated on:   7:54:48  18Dec2024            

=------------------------------------------------------------------------------=
   JOB DONE.
=------------------------------------------------------------------------------=
